/*--------------------------------*- C++ -*----------------------------------*\
| =========                 |                                                 |
| \\      /  F ield         | OpenFOAM: The Open Source CFD Toolbox           |
|  \\    /   O peration     | Version:  v2106                                 |
|   \\  /    A nd           | Website:  www.openfoam.com                      |
|    \\/     M anipulation  |                                                 |
\*---------------------------------------------------------------------------*/
FoamFile
{
    version     2.0;
    format      ascii;
    arch        "LSB;label=32;scalar=64";
    class       volScalarField;
    location    "1.6";
    object      p;
}
// * * * * * * * * * * * * * * * * * * * * * * * * * * * * * * * * * * * * * //

dimensions      [0 2 -2 0 0 0 0];

internalField   nonuniform List<scalar> 
4800
(
2.13736e-11
2.42217e-05
-6.38132e-06
-8.57484e-05
-0.000172815
-0.000206572
-0.000264919
-0.000342258
-0.000336758
-0.000377538
-0.000353141
-0.000265181
-0.000149515
2.40393e-05
0.000247595
0.000537437
0.000908774
0.00142371
0.00207365
0.00276982
1.33487e-05
2.16077e-05
-3.40975e-06
-8.81449e-05
-0.000170462
-0.000211449
-0.000262108
-0.000342966
-0.000332021
-0.000378621
-0.000344554
-0.000267257
-0.000143854
2.01313e-05
0.000252427
0.00052993
0.000914232
0.00137246
0.00186588
0.00238102
1.5748e-05
1.9799e-05
-1.93401e-06
-8.90244e-05
-0.000169167
-0.000212946
-0.000260902
-0.00034244
-0.000331722
-0.000376274
-0.000343295
-0.000265609
-0.000143218
1.89339e-05
0.000248689
0.000512228
0.000851877
0.00125481
0.00168464
0.00210804
2.70583e-05
1.77714e-05
1.41661e-07
-8.99665e-05
-0.000168564
-0.000214659
-0.00026117
-0.000340112
-0.000336141
-0.00037022
-0.000341473
-0.000261374
-0.000140141
2.04995e-05
0.000235868
0.000486126
0.000788212
0.00113543
0.0014841
0.00184279
3.41851e-05
1.63697e-05
1.20968e-06
-8.98817e-05
-0.000169001
-0.000213521
-0.000262625
-0.000335821
-0.000337421
-0.000365294
-0.000336614
-0.000256963
-0.000139379
1.73502e-05
0.000216932
0.000445881
0.000703208
0.000966913
0.00124898
0.00159246
4.36595e-05
1.65418e-05
1.16582e-06
-8.86153e-05
-0.000170723
-0.000212473
-0.000264656
-0.000332599
-0.000336887
-0.00035907
-0.000331864
-0.000252896
-0.000141392
1.02746e-05
0.000190761
0.000385947
0.000560772
0.000762454
0.00103756
0.00137422
5.22485e-05
1.85052e-05
-9.48392e-08
-8.66325e-05
-0.00017377
-0.000211721
-0.000262777
-0.000329646
-0.000335985
-0.000353721
-0.00032757
-0.000250232
-0.00014608
-4.68323e-06
0.000142602
0.00025732
0.0003923
0.00059386
0.000859717
0.00117763
6.12244e-05
2.316e-05
-1.71481e-06
-8.49164e-05
-0.000174282
-0.000212674
-0.000259953
-0.00032532
-0.000334787
-0.000349175
-0.000323587
-0.000250054
-0.000156299
-4.54284e-05
2.89347e-05
0.000120323
0.000266763
0.000457712
0.000690323
0.000977443
6.82586e-05
3.04217e-05
-1.86437e-06
-8.63976e-05
-0.000174078
-0.000210942
-0.00025704
-0.000321434
-0.000333813
-0.000345609
-0.000321978
-0.000258996
-0.000192034
-0.000140777
-7.67338e-05
2.46601e-05
0.00016145
0.000320543
0.000513645
0.00076939
7.85683e-05
3.79635e-05
1.00482e-06
-8.75195e-05
-0.000174901
-0.000205973
-0.000252471
-0.000318265
-0.000334219
-0.000344356
-0.000325903
-0.000286074
-0.000285141
-0.000235108
-0.000146584
-5.34389e-05
4.99355e-05
0.000172925
0.000329523
0.000555541
8.48335e-05
4.63265e-05
6.88303e-06
-8.49975e-05
-0.000176755
-0.000203652
-0.000247626
-0.000315782
-0.000337033
-0.000348551
-0.000356245
-0.000370053
-0.000354291
-0.000289873
-0.000207001
-0.000140652
-7.38695e-05
1.38655e-05
0.000139085
0.00033964
9.30501e-05
5.58088e-05
1.55122e-05
-7.80735e-05
-0.000174546
-0.000204762
-0.000246985
-0.000316469
-0.000345571
-0.000379047
-0.000429607
-0.000420861
-0.000390933
-0.00034136
-0.00028037
-0.000241705
-0.000210277
-0.000155083
-5.60884e-05
0.000123837
0.000100301
6.65228e-05
2.65844e-05
-6.5191e-05
-0.000166797
-0.000208971
-0.00025624
-0.000326599
-0.000375679
-0.000447191
-0.000473465
-0.0004505
-0.000429598
-0.000404316
-0.000368839
-0.000354734
-0.000354266
-0.000330112
-0.000254925
-8.99022e-05
0.00010686
7.72782e-05
4.10772e-05
-4.89956e-05
-0.000151992
-0.000213134
-0.000279002
-0.000373297
-0.000431179
-0.000474108
-0.000494556
-0.000483408
-0.000478375
-0.000478652
-0.000468544
-0.000475867
-0.000502335
-0.00050851
-0.00045544
-0.000301973
0.000118795
8.6854e-05
5.739e-05
-3.12749e-05
-0.00013874
-0.000219834
-0.000325679
-0.000430771
-0.000471215
-0.000501892
-0.00052489
-0.000525371
-0.00053589
-0.00056004
-0.000576352
-0.000604618
-0.000654368
-0.00068819
-0.000656908
-0.000514147
0.000132263
9.9183e-05
7.40437e-05
-1.43282e-05
-0.000140543
-0.000241993
-0.000356521
-0.000456994
-0.000510889
-0.000539992
-0.0005662
-0.000576616
-0.000600084
-0.000646179
-0.0006904
-0.000740991
-0.00081101
-0.000868543
-0.000858639
-0.000727183
0.000150845
0.000115811
8.66418e-05
-2.26892e-06
-0.000149641
-0.000274352
-0.000386249
-0.000492084
-0.000550337
-0.000582322
-0.000614695
-0.000636222
-0.000671768
-0.000737299
-0.000809499
-0.000884358
-0.000972627
-0.00104979
-0.00105968
-0.000940198
0.000173497
0.000136682
9.4929e-05
-2.03614e-06
-0.000164262
-0.000306395
-0.000420851
-0.000526071
-0.000589189
-0.000627432
-0.000668453
-0.000703702
-0.000752072
-0.000834654
-0.000933126
-0.00103357
-0.00113954
-0.00123259
-0.00125938
-0.00115169
0.000199181
0.000161803
0.000101888
-1.61932e-05
-0.000187181
-0.000334623
-0.000452907
-0.000560339
-0.000630948
-0.000676901
-0.000727851
-0.000778825
-0.000841597
-0.000939464
-0.00106133
-0.00118719
-0.00131135
-0.00141757
-0.00145763
-0.0013606
0.000227561
0.000186825
0.000106859
-3.44107e-05
-0.00021844
-0.000367548
-0.000484334
-0.000595007
-0.000675484
-0.000731108
-0.000792966
-0.000860745
-0.000939937
-0.00105245
-0.00119432
-0.00134377
-0.00148642
-0.00160457
-0.00165476
-0.00156663
0.000257873
0.000210706
0.000107848
-5.27809e-05
-0.000249937
-0.000405652
-0.00052107
-0.000632222
-0.000722798
-0.000790332
-0.000863972
-0.000948765
-0.00104596
-0.00117341
-0.00133223
-0.00150234
-0.00166311
-0.00179315
-0.00185151
-0.00177001
0.000287429
0.000232577
0.000107273
-7.11046e-05
-0.000280821
-0.000447062
-0.000564817
-0.000675433
-0.000774133
-0.000854857
-0.00094113
-0.00104238
-0.00115833
-0.00130137
-0.00147508
-0.00166292
-0.00184074
-0.00198263
-0.00204797
-0.00197078
0.000314817
0.000251996
0.000106552
-8.92212e-05
-0.000311453
-0.000490964
-0.000615143
-0.000725719
-0.000830793
-0.000924609
-0.00102441
-0.00114147
-0.00127593
-0.00143522
-0.00162288
-0.00182574
-0.00201862
-0.00217156
-0.002243
-0.00216863
0.00033951
0.000269201
0.000105443
-0.000107765
-0.000342801
-0.000536745
-0.000670976
-0.000783476
-0.000893642
-0.000999883
-0.00111378
-0.00124627
-0.00139814
-0.00157375
-0.00177495
-0.00199041
-0.00219573
-0.00235856
-0.00243568
-0.0023636
0.00036108
0.000283426
0.000103465
-0.000126766
-0.000374828
-0.000584009
-0.000731642
-0.000848752
-0.000963513
-0.00108106
-0.0012088
-0.00135624
-0.00152438
-0.00171569
-0.0019299
-0.00215616
-0.00237161
-0.00254315
-0.00262578
-0.00255577
0.0003793
0.00029482
9.98978e-05
-0.000147291
-0.000408119
-0.000632457
-0.000795985
-0.000920886
-0.00104056
-0.00116822
-0.00130931
-0.00147109
-0.00165449
-0.00186036
-0.00208633
-0.00232204
-0.00254577
-0.0027246
-0.00281231
-0.00274418
0.00039395
0.000302761
9.41905e-05
-0.000169651
-0.00044338
-0.000682272
-0.000862932
-0.000998733
-0.00112454
-0.00126125
-0.00141487
-0.00159034
-0.00178778
-0.00200671
-0.00224318
-0.00248717
-0.00271766
-0.00290215
-0.00299408
-0.00292776
0.00040474
0.00030717
8.5894e-05
-0.000194245
-0.00048113
-0.000733789
-0.000931855
-0.00108101
-0.00121467
-0.00135984
-0.00152446
-0.00171254
-0.0019228
-0.00215378
-0.0024001
-0.00265126
-0.00288712
-0.00307567
-0.00317067
-0.00310588
0.000411275
0.000307756
7.46206e-05
-0.000221395
-0.000521831
-0.00078724
-0.00100197
-0.00116645
-0.00131001
-0.00146379
-0.00163795
-0.00183692
-0.00205859
-0.00230027
-0.00255571
-0.0028132
-0.00305328
-0.0032447
-0.00334165
-0.00327788
0.000413421
0.000304291
6.04552e-05
-0.00025085
-0.000565644
-0.000843671
-0.00107332
-0.00125333
-0.00140867
-0.00157172
-0.00175485
-0.00196312
-0.00219441
-0.00244521
-0.00270859
-0.00297182
-0.00321531
-0.00340877
-0.00350679
-0.00344331
0.000411203
0.000296003
4.26364e-05
-0.000282457
-0.000611723
-0.000903106
-0.00114662
-0.00134102
-0.00150892
-0.00168176
-0.00187346
-0.00208988
-0.00232918
-0.00258777
-0.0028579
-0.00312623
-0.00337258
-0.00356731
-0.00366563
-0.00360169
0.000404527
0.000284141
2.12708e-05
-0.000316807
-0.000659886
-0.000964463
-0.00122114
-0.001429
-0.00160979
-0.00179284
-0.00199249
-0.00221581
-0.00246168
-0.00272683
-0.00300265
-0.00327519
-0.00352388
-0.00371927
-0.00381734
-0.00375247
0.000393636
0.00026793
-3.39091e-06
-0.000353182
-0.000710074
-0.00102773
-0.00129622
-0.00151621
-0.00170959
-0.00190328
-0.00211059
-0.00233966
-0.00259085
-0.00286118
-0.00314158
-0.00341746
-0.00366802
-0.00386384
-0.00396133
-0.00389528
0.000378645
0.000247923
-3.15725e-05
-0.000391142
-0.000760172
-0.00109175
-0.00137197
-0.00160233
-0.00180691
-0.00201057
-0.00222559
-0.00245997
-0.00271559
-0.00298994
-0.00327367
-0.00355209
-0.00380411
-0.00400026
-0.00409698
-0.00402948
0.000360022
0.000224971
-6.19821e-05
-0.000430941
-0.000810576
-0.00115378
-0.00144579
-0.00168693
-0.00190102
-0.00211319
-0.00233536
-0.002575
-0.00283453
-0.00311198
-0.00339796
-0.00367799
-0.00393106
-0.00412746
-0.00422348
-0.00415442
0.000338339
0.000199652
-9.33322e-05
-0.000470226
-0.000860544
-0.00121405
-0.00151527
-0.00176771
-0.00199097
-0.00221007
-0.00243849
-0.002683
-0.00294633
-0.0032261
-0.00351349
-0.00379421
-0.00404779
-0.00424433
-0.00433976
-0.00426927
0.000314951
0.000172781
-0.000125411
-0.000507628
-0.000906604
-0.00127108
-0.00157994
-0.00184183
-0.00207464
-0.00229947
-0.0025331
-0.00278194
-0.00304877
-0.00333047
-0.00361871
-0.00389976
-0.00415351
-0.00435017
-0.00444517
-0.00437355
0.000290757
0.000146136
-0.00015546
-0.000542469
-0.000948234
-0.00132107
-0.0016376
-0.00190755
-0.00214875
-0.0023788
-0.0026163
-0.00286908
-0.00313882
-0.003422
-0.0037105
-0.00399155
-0.00424525
-0.00444183
-0.00453644
-0.00446405
0.0002689
0.000122542
-0.00018152
-0.000571897
-0.000983879
-0.0013625
-0.00168427
-0.00196157
-0.00220895
-0.00244317
-0.0026836
-0.00293914
-0.00321138
-0.00349552
-0.00378401
-0.00406475
-0.00431834
-0.00451474
-0.00460879
-0.00453523
0.000249048
0.000100226
-0.000207095
-0.000600482
-0.00101747
-0.00140313
-0.00172948
-0.00201349
-0.00226832
-0.002507
-0.00275071
-0.00300912
-0.00328446
-0.00357062
-0.00385992
-0.0041411
-0.00439526
-0.00459246
-0.00468709
-0.00461377
0.00351861
0.00367011
0.00352281
0.00338799
0.00328016
0.00314226
0.00294261
0.00268034
0.00236929
0.00202597
0.00166404
0.00129569
0.000933465
0.000584351
0.000238864
-0.00012209
-0.000508531
-0.000924341
-0.00137936
-0.00188769
-0.00245957
-0.0030985
-0.00380369
-0.00456296
-0.00533981
-0.0060699
-0.00666714
-0.00705035
-0.00718014
-0.00707219
-0.00680155
-0.00646158
-0.00612308
-0.00582299
-0.00557764
-0.00539398
-0.00526948
-0.00519708
-0.00516907
-0.00517701
-0.005209
-0.00525634
-0.00531538
-0.00538231
-0.00545268
-0.00552574
-0.00560084
-0.00567577
-0.0057509
-0.00582613
-0.00590347
-0.00597952
-0.00605521
-0.00613108
-0.00620703
-0.00628424
-0.00636062
-0.00643727
-0.00651202
-0.00658875
-0.00666464
-0.00673923
-0.0068164
-0.0068929
-0.00697121
-0.00704849
-0.0071292
-0.00720802
-0.00728749
-0.00736814
-0.0074461
-0.00752777
-0.00760811
-0.00769228
-0.00777756
-0.00786175
-0.00794999
-0.00803204
-0.00811945
-0.00820632
-0.00829238
-0.0083855
-0.00847123
-0.00856477
-0.00865478
-0.00873982
-0.00883751
-0.00892406
-0.00901512
-0.00910766
-0.00919541
-0.00928817
-0.00937313
-0.0094618
-0.00954725
-0.00962914
-0.00970635
-0.00978071
-0.00984475
-0.00989961
0.00291023
0.00329032
0.00341569
0.00337361
0.00326365
0.00310942
0.00290523
0.00264687
0.00234075
0.00200042
0.00163969
0.00127155
0.00090941
0.000560997
0.000216922
-0.000142683
-0.000528083
-0.000942429
-0.00139495
-0.00189983
-0.00246756
-0.00310118
-0.00379885
-0.00454687
-0.00531075
-0.00602959
-0.00662191
-0.00700972
-0.00714863
-0.00704939
-0.00678507
-0.00644911
-0.00611262
-0.0058144
-0.00557052
-0.00538793
-0.00526412
-0.00519217
-0.00516452
-0.00517279
-0.00520503
-0.00525258
-0.00531183
-0.00537897
-0.00544951
-0.00552276
-0.00559805
-0.00567316
-0.00574846
-0.00582385
-0.00590136
-0.00597756
-0.00605338
-0.00612938
-0.00620544
-0.00628277
-0.00635924
-0.00643597
-0.00651078
-0.0065876
-0.00666355
-0.00673819
-0.00681544
-0.00689198
-0.00697035
-0.00704764
-0.0071284
-0.00720724
-0.00728674
-0.00736743
-0.0074454
-0.00752712
-0.00760747
-0.00769166
-0.00777696
-0.00786116
-0.00794945
-0.0080315
-0.00811893
-0.00820583
-0.00829188
-0.00838505
-0.00847077
-0.00856434
-0.00865437
-0.0087394
-0.00883715
-0.0089237
-0.00901477
-0.00910734
-0.00919508
-0.00928789
-0.00937284
-0.00946154
-0.00954699
-0.0096289
-0.00970612
-0.00978051
-0.00984455
-0.00989943
0.00257812
0.00305806
0.00335499
0.00340928
0.00330227
0.00311799
0.00289073
0.00262406
0.00231716
0.001977
0.00161531
0.00124517
0.000881093
0.000531744
0.000188168
-0.000170365
-0.000555328
-0.00096921
-0.0014194
-0.00191947
-0.00248036
-0.00310456
-0.00378807
-0.00451392
-0.00524933
-0.00593989
-0.00651308
-0.00689698
-0.00705021
-0.00697778
-0.00673971
-0.00642222
-0.00609684
-0.00580503
-0.00556646
-0.0053879
-0.00526631
-0.00519513
-0.00516736
-0.0051751
-0.00520672
-0.00525366
-0.00531235
-0.005379
-0.00544914
-0.00552206
-0.0055971
-0.00567202
-0.00574718
-0.00582246
-0.00589988
-0.00597602
-0.00605183
-0.00612783
-0.00620391
-0.00628126
-0.00635774
-0.00643451
-0.00650934
-0.0065862
-0.00666221
-0.0067369
-0.00681423
-0.00689085
-0.00696931
-0.00704666
-0.00712748
-0.00720635
-0.00728587
-0.00736662
-0.00744462
-0.00752642
-0.00760682
-0.00769106
-0.00777639
-0.00786058
-0.0079489
-0.00803097
-0.00811844
-0.00820539
-0.00829144
-0.00838465
-0.00847035
-0.00856395
-0.00865401
-0.00873903
-0.00883682
-0.00892337
-0.00901445
-0.00910706
-0.00919479
-0.00928763
-0.00937258
-0.0094613
-0.00954677
-0.00962871
-0.00970594
-0.00978037
-0.00984457
-0.00989944
0.00229321
0.00282006
0.00322045
0.00336783
0.00329751
0.00310664
0.00286088
0.0025835
0.00227485
0.00193634
0.00157603
0.00120593
0.000841209
0.000491564
0.000148796
-0.000208503
-0.000592944
-0.00100555
-0.00145177
-0.0019446
-0.00249567
-0.00310662
-0.00377059
-0.00447
-0.00517299
-0.00583171
-0.00638281
-0.00676214
-0.00693116
-0.00688902
-0.00668232
-0.00638817
-0.00607717
-0.00579388
-0.00556081
-0.00538578
-0.00526613
-0.00519566
-0.00516773
-0.00517489
-0.00520586
-0.00525222
-0.00531041
-0.00537664
-0.00544647
-0.00551916
-0.005594
-0.00566884
-0.00574401
-0.00581929
-0.00589671
-0.00597289
-0.00604882
-0.00612496
-0.00620117
-0.00627864
-0.00635524
-0.00643213
-0.00650705
-0.00658399
-0.00666009
-0.00673491
-0.00681237
-0.00688913
-0.00696775
-0.00704523
-0.00712614
-0.00720505
-0.00728458
-0.00736537
-0.00744344
-0.00752537
-0.00760587
-0.0076902
-0.00777555
-0.00785972
-0.00794805
-0.00803013
-0.00811767
-0.00820467
-0.00829075
-0.008384
-0.00846966
-0.00856328
-0.00865337
-0.0087384
-0.00883622
-0.00892277
-0.00901388
-0.00910651
-0.00919423
-0.00928712
-0.00937207
-0.00946082
-0.00954631
-0.0096283
-0.0097056
-0.00978005
-0.00984463
-0.0098995
0.00204185
0.00259013
0.00305767
0.00328859
0.00327577
0.00309823
0.00284252
0.00255305
0.00223828
0.00189795
0.00153707
0.00116647
0.000801192
0.000451311
0.000109172
-0.00024673
-0.000629853
-0.00104033
-0.00148191
-0.00196668
-0.00250661
-0.00310243
-0.00374452
-0.0044152
-0.00508558
-0.00571326
-0.00624301
-0.00661782
-0.00680137
-0.0067886
-0.00661513
-0.00634776
-0.00605408
-0.00578097
-0.00555354
-0.00538172
-0.00526407
-0.00519471
-0.00516706
-0.00517399
-0.00520455
-0.00525048
-0.00530824
-0.00537408
-0.00544358
-0.00551598
-0.00559058
-0.00566529
-0.00574046
-0.0058157
-0.00589305
-0.00596924
-0.00604523
-0.00612149
-0.00619782
-0.00627539
-0.00635207
-0.00642907
-0.00650408
-0.00658107
-0.00665726
-0.00673222
-0.00680982
-0.00688677
-0.00696561
-0.00704327
-0.00712429
-0.00720325
-0.00728277
-0.00736359
-0.00744176
-0.00752386
-0.00760453
-0.00768899
-0.00777436
-0.0078585
-0.00794679
-0.00802892
-0.00811654
-0.00820364
-0.00828977
-0.00838306
-0.00846868
-0.00856229
-0.00865242
-0.00873749
-0.0088353
-0.00892188
-0.00901301
-0.00910567
-0.00919338
-0.0092863
-0.00937126
-0.00946005
-0.00954556
-0.0096276
-0.00970507
-0.0097795
-0.00984467
-0.00989955
0.0018196
0.00237393
0.00288553
0.00318606
0.00323694
0.00309006
0.00283472
0.00253312
0.00220771
0.00186136
0.00149706
0.0011245
0.000758513
0.000408709
6.72916e-05
-0.000286904
-0.000667795
-0.00107539
-0.00151192
-0.00198808
-0.00251539
-0.00309429
-0.00371347
-0.00435519
-0.00499377
-0.00559179
-0.00610103
-0.00647089
-0.00666731
-0.00668209
-0.0065418
-0.00630298
-0.00602899
-0.00576748
-0.00554612
-0.00537741
-0.00526159
-0.00519333
-0.00516608
-0.0051729
-0.00520316
-0.0052487
-0.00530602
-0.00537144
-0.00544056
-0.00551263
-0.00558694
-0.00566147
-0.00573658
-0.00581174
-0.00588898
-0.00596515
-0.00604119
-0.00611756
-0.006194
-0.00627166
-0.00634842
-0.00642552
-0.00650062
-0.00657764
-0.00665392
-0.00672904
-0.0068068
-0.00688397
-0.00696307
-0.00704093
-0.00712207
-0.00720107
-0.00728055
-0.00736141
-0.00743969
-0.007522
-0.00760287
-0.00768748
-0.00777288
-0.00785695
-0.00794519
-0.00802738
-0.00811508
-0.00820233
-0.00828851
-0.00838185
-0.00846741
-0.00856098
-0.00865118
-0.0087363
-0.00883404
-0.00892069
-0.00901182
-0.00910452
-0.0091922
-0.00928515
-0.00937013
-0.00945894
-0.00954447
-0.00962658
-0.00970429
-0.0097787
-0.00984459
-0.00989951
0.00160751
0.00216267
0.00270573
0.00306348
0.00317742
0.00307171
0.00282698
0.0025169
0.00217959
0.00182502
0.00145506
0.00107863
0.000711123
0.000361521
2.13047e-05
-0.00033049
-0.00070816
-0.00111184
-0.00154233
-0.00200889
-0.00252222
-0.00308275
-0.00367863
-0.00429179
-0.00489936
-0.00546911
-0.00595875
-0.00632304
-0.00653012
-0.00656998
-0.00646202
-0.00625313
-0.00600098
-0.00575271
-0.0055382
-0.00537266
-0.0052585
-0.00519125
-0.0051644
-0.00517118
-0.00520126
-0.00524651
-0.00530343
-0.00536845
-0.00543721
-0.00550891
-0.00558292
-0.00565727
-0.00573227
-0.00580733
-0.00588445
-0.00596059
-0.0060367
-0.00611319
-0.00618976
-0.00626753
-0.00634439
-0.0064216
-0.00649678
-0.00657385
-0.00665023
-0.00672553
-0.00680346
-0.00688089
-0.00696027
-0.00703835
-0.00711959
-0.00719865
-0.00727807
-0.00735896
-0.00743736
-0.00751991
-0.00760102
-0.00768578
-0.00777119
-0.00785519
-0.00794337
-0.00802563
-0.0081134
-0.00820083
-0.00828706
-0.00838045
-0.00846594
-0.00855942
-0.00864973
-0.00873491
-0.00883254
-0.00891927
-0.00901038
-0.00910313
-0.00919077
-0.00928373
-0.00936876
-0.00945756
-0.00954313
-0.00962529
-0.00970333
-0.00977771
-0.00984436
-0.00989936
0.00139154
0.00194973
0.0025198
0.00292526
0.00309682
0.00303855
0.00281386
0.00250119
0.00215287
0.00178879
0.00141196
0.00102993
0.00065935
0.000309814
-2.81932e-05
-0.000376491
-0.000750122
-0.001149
-0.00157228
-0.00202816
-0.0025267
-0.00306814
-0.00364058
-0.00422583
-0.00480348
-0.00534595
-0.00581627
-0.0061739
-0.00638941
-0.00645184
-0.00637486
-0.00619673
-0.00596842
-0.00573544
-0.00552913
-0.0053673
-0.00525476
-0.00518838
-0.00516187
-0.00516862
-0.00519858
-0.00524365
-0.00530025
-0.00536491
-0.00543333
-0.00550471
-0.00557842
-0.00565257
-0.00572748
-0.00580244
-0.00587946
-0.00595561
-0.00603179
-0.00610843
-0.00618516
-0.00626306
-0.00634003
-0.00641735
-0.00649263
-0.00656975
-0.00664624
-0.00672173
-0.00679985
-0.00687756
-0.00695725
-0.00703557
-0.00711692
-0.00719602
-0.00727536
-0.0073563
-0.00743484
-0.00751765
-0.00759902
-0.00768393
-0.00776935
-0.00785326
-0.00794135
-0.00802372
-0.00811156
-0.00819918
-0.00828547
-0.00837891
-0.00846432
-0.0085577
-0.00864812
-0.00873336
-0.00883086
-0.00891771
-0.00900878
-0.00910157
-0.00918916
-0.00928214
-0.00936721
-0.009456
-0.00954161
-0.00962382
-0.00970223
-0.00977661
-0.00984399
-0.00989916
0.0011698
0.00173397
0.0023299
0.00277671
0.0029987
0.00298862
0.00279249
0.00248419
0.00212699
0.00175282
0.00136889
0.000980693
0.000605074
0.000254403
-8.08739e-05
-0.000424787
-0.000793889
-0.00118738
-0.00160228
-0.00204607
-0.00252896
-0.00305073
-0.0035994
-0.00415722
-0.00470579
-0.00522165
-0.00567273
-0.00602289
-0.00624506
-0.00632776
-0.0062802
-0.00613325
-0.00593076
-0.00571521
-0.00551872
-0.00536136
-0.00525047
-0.00518472
-0.00515838
-0.00516503
-0.00519489
-0.00523991
-0.00529635
-0.00536075
-0.00542894
-0.00550008
-0.00557351
-0.00564748
-0.00572231
-0.00579719
-0.0058741
-0.00595027
-0.00602654
-0.00610334
-0.00618023
-0.00625828
-0.00633536
-0.0064128
-0.00648819
-0.00656536
-0.00664195
-0.00671766
-0.00679598
-0.00687399
-0.00695402
-0.00703258
-0.00711404
-0.0071932
-0.00727245
-0.00735343
-0.00743212
-0.00751522
-0.00759686
-0.00768194
-0.00776737
-0.00785116
-0.00793917
-0.00802166
-0.00810958
-0.0081974
-0.00828375
-0.00837723
-0.00846258
-0.00855582
-0.00864637
-0.00873169
-0.00882904
-0.008916
-0.00900706
-0.00909988
-0.00918742
-0.00928039
-0.00936555
-0.00945428
-0.00953997
-0.00962222
-0.00970105
-0.00977545
-0.00984349
-0.00989893
0.000944243
0.00151649
0.00213801
0.0026224
0.00288821
0.00292323
0.00276056
0.002464
0.00210139
0.00171725
0.00132627
0.000932214
0.000549651
0.000195246
-0.0001377
-0.000476097
-0.000839593
-0.00122678
-0.00163197
-0.00206191
-0.00252797
-0.00302981
-0.00355481
-0.00408579
-0.00460628
-0.00509633
-0.00552852
-0.00587069
-0.00609797
-0.00619875
-0.00617872
-0.00606256
-0.00588726
-0.00569119
-0.0055063
-0.00535447
-0.00524557
-0.00518034
-0.005154
-0.00516046
-0.00519023
-0.00523529
-0.00529175
-0.00535607
-0.00542406
-0.005495
-0.00556821
-0.00564201
-0.00571676
-0.00579156
-0.00586834
-0.00594454
-0.00602092
-0.00609789
-0.00617497
-0.00625317
-0.00633037
-0.00640795
-0.00648343
-0.00656064
-0.00663736
-0.0067133
-0.00679184
-0.00687017
-0.00695056
-0.00702939
-0.00711095
-0.00719015
-0.00726931
-0.00735035
-0.00742921
-0.00751261
-0.00759455
-0.0076798
-0.00776524
-0.00784891
-0.0079368
-0.00801944
-0.00810747
-0.00819549
-0.00828189
-0.00837541
-0.00846072
-0.0085538
-0.00864449
-0.0087299
-0.00882709
-0.00891416
-0.0090052
-0.00909805
-0.00918557
-0.0092785
-0.00936376
-0.00945243
-0.00953822
-0.00962051
-0.00969977
-0.00977422
-0.00984287
-0.00989867
0.000718034
0.00129903
0.00194515
0.00246386
0.00276851
0.00284403
0.00271616
0.00243768
0.00207414
0.00168079
0.00128277
0.000883648
0.000493906
0.000133476
-0.000198228
-0.000529847
-0.000886023
-0.001266
-0.00166093
-0.00207587
-0.00252397
-0.00300582
-0.00350769
-0.00401239
-0.0045055
-0.00497052
-0.0053842
-0.00571792
-0.00594879
-0.00606534
-0.00607062
-0.00598428
-0.00583693
-0.00566234
-0.00549125
-0.00534647
-0.00524022
-0.00517564
-0.0051491
-0.00515513
-0.00518467
-0.00522973
-0.00528626
-0.00535064
-0.00541854
-0.00548931
-0.00556238
-0.00563607
-0.00571075
-0.00578552
-0.00586218
-0.00593839
-0.00601491
-0.00609208
-0.00616934
-0.0062477
-0.00632504
-0.00640275
-0.00647832
-0.00655557
-0.00663241
-0.00670862
-0.00678741
-0.00686607
-0.00694684
-0.00702597
-0.00710762
-0.00718688
-0.00726594
-0.00734702
-0.00742607
-0.0075098
-0.00759207
-0.00767749
-0.00776294
-0.0078465
-0.00793426
-0.00801704
-0.0081052
-0.00819345
-0.0082799
-0.00837344
-0.00845874
-0.00855163
-0.00864247
-0.00872798
-0.008825
-0.00891218
-0.00900322
-0.00909609
-0.0091836
-0.00927646
-0.00936186
-0.00945045
-0.00953636
-0.00961868
-0.0096984
-0.00977294
-0.00984211
-0.00989835
0.00049408
0.00108304
0.00175148
0.00230137
0.00264141
0.00275289
0.00265795
0.00240159
0.00204254
0.00164218
0.00123749
0.000834772
0.000439308
7.16663e-05
-0.00026119
-0.000586027
-0.000933173
-0.00130515
-0.00168993
-0.00208928
-0.00251794
-0.00297896
-0.00345801
-0.0039371
-0.00440347
-0.00484422
-0.00523989
-0.00556489
-0.00579801
-0.0059281
-0.00595662
-0.00589886
-0.00577971
-0.00562829
-0.00547313
-0.00533706
-0.00523431
-0.00517051
-0.00514354
-0.00514884
-0.00517798
-0.005223
-0.00527966
-0.00534425
-0.00541228
-0.005483
-0.00555603
-0.00562969
-0.00570433
-0.00577906
-0.00585562
-0.00593182
-0.00600845
-0.00608586
-0.00616332
-0.00624184
-0.00631932
-0.00639715
-0.00647283
-0.00655013
-0.00662709
-0.00670358
-0.00678266
-0.00686167
-0.00694284
-0.00702228
-0.00710404
-0.00718334
-0.00726231
-0.00734344
-0.00742271
-0.00750678
-0.0075894
-0.007675
-0.00776048
-0.0078439
-0.00793153
-0.00801445
-0.00810275
-0.00819127
-0.00827778
-0.00837129
-0.00845661
-0.0085493
-0.0086403
-0.00872592
-0.00882275
-0.00891005
-0.0090011
-0.00909397
-0.00918151
-0.00927428
-0.00935983
-0.00944834
-0.00953437
-0.00961674
-0.00969693
-0.0097716
-0.0098412
-0.00989795
0.000274453
0.000869645
0.00155708
0.0021349
0.0025076
0.00265151
0.00258615
0.00235343
0.00200498
0.00160171
0.00119084
0.000785243
0.000386118
1.12812e-05
-0.000325657
-0.000645271
-0.000981877
-0.00134425
-0.00171872
-0.00210219
-0.00250998
-0.00294885
-0.00340525
-0.00385993
-0.00430069
-0.00471793
-0.00509598
-0.00541212
-0.00564645
-0.00578811
-0.00583761
-0.00580667
-0.00571534
-0.00558816
-0.00545075
-0.00532519
-0.00522717
-0.00516467
-0.00513734
-0.00514174
-0.0051703
-0.0052152
-0.00527194
-0.00533682
-0.0054052
-0.00547603
-0.00554902
-0.00562272
-0.00569736
-0.00577207
-0.00584855
-0.00592477
-0.00600153
-0.00607919
-0.00615692
-0.00623557
-0.00631318
-0.00639114
-0.00646692
-0.00654426
-0.00662135
-0.00669814
-0.00677754
-0.00685695
-0.00693857
-0.00701832
-0.00710019
-0.00717956
-0.00725839
-0.00733959
-0.0074191
-0.00750352
-0.00758655
-0.00767231
-0.00775784
-0.00784112
-0.0079286
-0.00801167
-0.0081001
-0.0081889
-0.00827553
-0.00836899
-0.00845433
-0.00854679
-0.00863798
-0.00872373
-0.00882035
-0.00890777
-0.00899883
-0.00909169
-0.00917928
-0.00927195
-0.00935767
-0.00944609
-0.00953224
-0.00961469
-0.00969534
-0.00977018
-0.00984013
-0.00989745
5.87926e-05
0.000658807
0.0013617
0.00196396
0.00236674
0.00254104
0.00250256
0.0022931
0.00195983
0.00155841
0.00114209
0.000733412
0.000332826
-4.76329e-05
-0.000390393
-0.000707118
-0.00103236
-0.00138262
-0.00174599
-0.00211413
-0.00250057
-0.00291599
-0.00334959
-0.0037813
-0.00419806
-0.00459241
-0.00495286
-0.00525991
-0.00549463
-0.00564613
-0.00571416
-0.00570792
-0.00564358
-0.0055412
-0.00542311
-0.00531009
-0.00521846
-0.00515812
-0.00513071
-0.00513411
-0.00516181
-0.00520638
-0.00526308
-0.00532822
-0.00539702
-0.00546815
-0.00554122
-0.005615
-0.00568979
-0.00576458
-0.005841
-0.00591726
-0.00599415
-0.00607205
-0.00615005
-0.00622886
-0.00630658
-0.00638467
-0.00646057
-0.00653795
-0.00661519
-0.00669231
-0.00677207
-0.00685192
-0.00693403
-0.0070141
-0.00709605
-0.00717549
-0.00725419
-0.00733543
-0.00741524
-0.00750002
-0.0075835
-0.00766943
-0.00775499
-0.00783814
-0.00792545
-0.00800871
-0.00809727
-0.00818635
-0.00827314
-0.00836653
-0.00845189
-0.00854408
-0.00863548
-0.00872139
-0.00881777
-0.00890533
-0.00899641
-0.00908926
-0.0091769
-0.00926946
-0.00935536
-0.00944369
-0.00952996
-0.00961253
-0.00969363
-0.00976868
-0.00983889
-0.00989682
-0.000154869
0.00045004
0.00116572
0.00178898
0.00221904
0.00242241
0.0024092
0.00222114
0.00190482
0.00150997
0.00109032
0.000678439
0.000278203
-0.000105002
-0.000453422
-0.00076945
-0.00108404
-0.0014201
-0.00177113
-0.0021251
-0.00249076
-0.00288171
-0.00329185
-0.00370144
-0.00409571
-0.00446796
-0.00481071
-0.0051083
-0.00534284
-0.00550278
-0.00558706
-0.0056033
-0.00556475
-0.00548725
-0.00538965
-0.00529099
-0.00520752
-0.00515048
-0.00512346
-0.00512591
-0.00515247
-0.00519648
-0.00525299
-0.00531828
-0.00538753
-0.00545919
-0.00553263
-0.00560655
-0.00568152
-0.00575652
-0.00583289
-0.00590919
-0.00598628
-0.00606442
-0.00614268
-0.0062217
-0.00629956
-0.00637773
-0.00645375
-0.00653117
-0.00660858
-0.00668604
-0.00676619
-0.00684652
-0.00692916
-0.0070096
-0.0070916
-0.00717109
-0.00724968
-0.00733094
-0.0074111
-0.00749628
-0.00758024
-0.00766635
-0.00775194
-0.00783495
-0.00792208
-0.00800552
-0.00809425
-0.0081836
-0.00827055
-0.0083639
-0.00844932
-0.00854117
-0.00863279
-0.00871891
-0.00881501
-0.00890273
-0.00899383
-0.00908666
-0.00917436
-0.00926681
-0.00935289
-0.00944115
-0.00952754
-0.00961024
-0.00969178
-0.00976708
-0.0098375
-0.00989606
-0.00036818
0.000242994
0.000970337
0.00161158
0.00206555
0.00229595
0.00230698
0.00213841
0.00183888
0.00145438
0.00103524
0.000620903
0.000221993
-0.000160746
-0.000513195
-0.000830336
-0.00113647
-0.00145769
-0.00179462
-0.0021349
-0.00248109
-0.00284707
-0.00323262
-0.00362014
-0.00399337
-0.00434506
-0.00467039
-0.00495795
-0.00519163
-0.00535889
-0.00545741
-0.00549386
-0.00547934
-0.0054262
-0.00534979
-0.00526696
-0.00519344
-0.00514126
-0.00511542
-0.00511706
-0.0051424
-0.00518563
-0.00524184
-0.00530715
-0.00537678
-0.00544904
-0.00552305
-0.00559726
-0.00567238
-0.0057477
-0.00582417
-0.00590057
-0.00597789
-0.0060563
-0.00613482
-0.00621404
-0.0062921
-0.00637031
-0.00644641
-0.00652387
-0.00660146
-0.00667931
-0.0067599
-0.00684076
-0.00692396
-0.00700482
-0.00708686
-0.00716635
-0.00724484
-0.00732614
-0.00740668
-0.0074923
-0.00757678
-0.00766303
-0.00774866
-0.00783151
-0.00791845
-0.00800212
-0.00809101
-0.00818067
-0.00826777
-0.00836103
-0.00844662
-0.00853808
-0.00862987
-0.00871627
-0.00881207
-0.00889994
-0.00899106
-0.0090839
-0.00917166
-0.00926397
-0.00935026
-0.00943846
-0.00952497
-0.00960782
-0.00968978
-0.00976537
-0.00983594
-0.00989513
-0.000581486
3.73134e-05
0.000776316
0.00143295
0.00190701
0.0021615
0.002196
0.00204626
0.00176269
0.00139075
0.000976464
0.000561385
0.000163755
-0.000216247
-0.000570338
-0.000889291
-0.00118903
-0.00149588
-0.00181692
-0.00214263
-0.0024708
-0.00281254
-0.00317254
-0.00353763
-0.00389111
-0.00422419
-0.00453291
-0.00480967
-0.00504143
-0.00521503
-0.00532618
-0.00538041
-0.00538771