/*--------------------------------*- C++ -*----------------------------------*\
| =========                 |                                                 |
| \\      /  F ield         | OpenFOAM: The Open Source CFD Toolbox           |
|  \\    /   O peration     | Version:  v2106                                 |
|   \\  /    A nd           | Website:  www.openfoam.com                      |
|    \\/     M anipulation  |                                                 |
\*---------------------------------------------------------------------------*/
FoamFile
{
    version     2.0;
    format      ascii;
    arch        "LSB;label=32;scalar=64";
    class       surfaceScalarField;
    location    "1.6";
    object      phi;
}
// * * * * * * * * * * * * * * * * * * * * * * * * * * * * * * * * * * * * * //

dimensions      [0 3 -1 0 0 0 0];

oriented        oriented;

internalField   nonuniform List<scalar> 
9440
(
3.88142e-06
-2.41081e-09
3.87694e-06
-3.1843e-08
3.8801e-06
7.29882e-09
3.87782e-06
-9.78064e-09
3.88013e-06
1.59211e-08
3.87938e-06
2.18214e-09
3.88147e-06
2.0637e-08
3.88081e-06
-1.8374e-08
3.88223e-06
4.38961e-09
3.88137e-06
-2.59936e-08
3.88283e-06
-2.53892e-09
3.88212e-06
-2.42941e-08
3.88354e-06
-3.17646e-09
3.88286e-06
-2.03148e-08
3.88385e-06
-2.84046e-09
3.88359e-06
-1.74725e-08
3.8831e-06
-9.76495e-10
3.87739e-06
-1.05466e-08
3.86435e-06
1.53012e-08
2.95664e-08
3.84184e-06
4.18332e-06
1.3379e-10
4.18607e-06
-3.45971e-08
4.18403e-06
9.33925e-09
4.187e-06
-1.27517e-08
4.18544e-06
1.74815e-08
4.18806e-06
-4.33795e-10
4.1878e-06
2.08901e-08
4.18782e-06
-1.83916e-08
4.18833e-06
3.88241e-09
4.18637e-06
-2.40408e-08
4.18809e-06
-4.25268e-09
4.18625e-06
-2.24599e-08
4.18859e-06
-5.51051e-09
4.1871e-06
-1.88308e-08
4.18936e-06
-5.10005e-09
4.18497e-06
-1.30794e-08
4.18334e-06
6.50693e-10
4.17098e-06
1.82042e-09
4.16538e-06
2.08989e-08
3.55517e-08
4.15939e-06
4.51784e-06
2.35628e-09
4.51956e-06
-3.63191e-08
4.51896e-06
9.9394e-09
4.51981e-06
-1.35992e-08
4.52091e-06
1.63804e-08
4.52068e-06
-2.0517e-10
4.52367e-06
1.78975e-08
4.52083e-06
-1.5549e-08
4.52453e-06
1.81546e-10
4.51974e-06
-1.92442e-08
4.52446e-06
-8.9813e-09
4.51964e-06
-1.76358e-08
4.52538e-06
-1.1247e-08
4.52193e-06
-1.53887e-08
4.52577e-06
-8.93295e-09
4.52095e-06
-8.26342e-09
4.52177e-06
-1.71722e-10
4.51405e-06
9.54473e-09
4.50812e-06
2.68269e-08
4.66614e-08
4.49701e-06
4.88059e-06
2.71344e-09
4.87999e-06
-3.57212e-08
4.88206e-06
7.87056e-09
4.88036e-06
-1.19017e-08
4.88399e-06
1.2751e-08
4.88158e-06
2.20384e-09
4.88645e-06
1.3031e-08
4.88253e-06
-1.1629e-08
4.88693e-06
-4.21361e-09
4.88299e-06
-1.5309e-08
4.88733e-06
-1.33242e-08
4.88623e-06
-1.65318e-08
4.88858e-06
-1.35981e-08
4.88683e-06
-1.36396e-08
4.88837e-06
-1.04713e-08
4.88586e-06
-5.75693e-09
4.8837e-06
1.99615e-09
4.87524e-06
1.80013e-08
4.86493e-06
3.71317e-08
5.285e-08
4.85875e-06
5.27096e-06
2.40401e-09
5.26921e-06
-3.39784e-08
5.27293e-06
4.15269e-09
5.26998e-06
-8.9526e-09
5.27482e-06
7.91267e-09
5.2718e-06
5.22135e-09
5.2769e-06
7.9369e-09
5.27381e-06
-8.53901e-09
5.27774e-06
-8.15035e-09
5.27719e-06
-1.47531e-08
5.27906e-06
-1.51957e-08
5.27856e-06
-1.60368e-08
5.28011e-06
-1.51454e-08
5.27931e-06
-1.28353e-08
5.27951e-06
-1.06697e-08
5.27602e-06
-2.27049e-09
5.26718e-06
1.08404e-08
5.25536e-06
2.98151e-08
5.24976e-06
4.27366e-08
5.46319e-08
5.24797e-06
5.69198e-06
1.88502e-09
5.68938e-06
-3.13789e-08
5.69439e-06
-8.54114e-10
5.69094e-06
-5.51147e-09
5.69599e-06
2.86962e-09
5.69369e-06
7.52038e-09
5.69798e-06
3.64729e-09
5.69824e-06
-8.79826e-09
5.7e-06
-9.91102e-09
5.7003e-06
-1.50551e-08
5.70152e-06
-1.64181e-08
5.70173e-06
-1.62422e-08
5.70236e-06
-1.57788e-08
5.70187e-06
-1.2347e-08
5.69885e-06
-7.64912e-09
5.68918e-06
7.40541e-09
5.67671e-06
2.33087e-08
5.67158e-06
3.49418e-08
5.66869e-06
4.56291e-08
5.55026e-08
5.66782e-06
6.14647e-06
1.28906e-09
6.14344e-06
-2.83545e-08
6.1488e-06
-6.20746e-09
6.14657e-06
-3.28292e-09
6.1501e-06
-6.6714e-10
6.15074e-06
6.88396e-09
6.15234e-06
2.04957e-09
6.1544e-06
-1.08626e-08
6.15617e-06
-1.16757e-08
6.15691e-06
-1.58001e-08
6.15758e-06
-1.70842e-08
6.15814e-06
-1.68095e-08
6.15747e-06
-1.51041e-08
6.1545e-06
-9.37896e-09
6.14361e-06
3.24246e-09
6.13208e-06
1.89341e-08
6.12673e-06
2.8661e-08
6.12375e-06
3.79243e-08
6.12212e-06
4.72547e-08
5.60921e-08
6.12153e-06
6.6372e-06
6.53043e-10
6.63418e-06
-2.53381e-08
6.63868e-06
-1.07015e-08
6.63906e-06
-3.66628e-09
6.63995e-06
-1.56071e-09
6.64293e-06
3.90467e-09
6.64561e-06
-6.26125e-10
6.64708e-06
-1.23346e-08
6.64874e-06
-1.33406e-08
6.64959e-06
-1.66455e-08
6.65003e-06
-1.7528e-08
6.64939e-06
-1.61615e-08
6.64597e-06
-1.1684e-08
6.63538e-06
1.21036e-09
6.62339e-06
1.52272e-08
6.6186e-06
2.37208e-08
6.61531e-06
3.19541e-08
6.61332e-06
3.9912e-08
6.61197e-06
4.86122e-08
5.67978e-08
6.61126e-06
7.16704e-06
4.33304e-11
7.16442e-06
-2.27217e-08
7.16555e-06
-1.18309e-08
7.16969e-06
-7.80124e-09
7.17084e-06
-2.71173e-09
7.17414e-06
6.02305e-10
7.1776e-06
-4.08376e-09
7.17919e-06
-1.39225e-08
7.1805e-06
-1.46584e-08
7.18113e-06
-1.72747e-08
7.18126e-06
-1.76535e-08
7.17798e-06
-1.28853e-08
7.16731e-06
-1.00976e-09
7.15491e-06
1.36075e-08
7.14935e-06
2.07838e-08
7.14628e-06
2.68006e-08
7.14408e-06
3.41493e-08
7.14196e-06
4.20294e-08
7.14062e-06
4.99533e-08
5.71628e-08
7.14026e-06
7.73924e-06
-5.97507e-10
7.73653e-06
-2.00085e-08
7.73741e-06
-1.27121e-08
7.74043e-06
-1.08146e-08
7.74538e-06
-7.66249e-09
7.74839e-06
-2.41175e-09
7.75163e-06
-7.32089e-09
7.75313e-06
-1.54243e-08
7.75453e-06
-1.60555e-08
7.75396e-06
-1.6704e-08
7.74973e-06
-1.34244e-08
7.73755e-06
-7.04749e-10
7.72641e-06
1.01236e-08
7.72261e-06
1.74066e-08
7.71974e-06
2.36553e-08
7.7173e-06
2.92439e-08
7.71484e-06
3.66077e-08
7.71288e-06
4.39879e-08
7.7117e-06
5.11371e-08
5.72746e-08
7.71159e-06
8.35708e-06
-1.22137e-09
8.35428e-06
-1.72026e-08
8.3552e-06
-1.36385e-08
8.35683e-06
-1.24424e-08
8.36361e-06
-1.44441e-08
8.36886e-06
-7.66157e-09
8.37179e-06
-1.02488e-08
8.37251e-06
-1.61434e-08
8.37211e-06
-1.56567e-08
8.36699e-06
-1.15772e-08
8.35519e-06
-1.6282e-09
8.34527e-06
9.21277e-09
8.34089e-06
1.45051e-08
8.33878e-06
1.95153e-08
8.33632e-06
2.6113e-08
8.33356e-06
3.2004e-08
8.33133e-06
3.88383e-08
8.32958e-06
4.57405e-08
8.32855e-06
5.21661e-08
5.71853e-08
8.32864e-06
9.02424e-06
-1.81414e-09
9.02196e-06
-1.49208e-08
9.02262e-06
-1.4297e-08
9.02459e-06
-1.44108e-08
9.03058e-06
-2.04407e-08
9.03744e-06
-1.45236e-08
9.04079e-06
-1.35906e-08
9.04003e-06
-1.53863e-08
9.03395e-06
-9.58115e-09
9.023e-06
-6.27307e-10
9.01358e-06
7.79269e-09
9.00938e-06
1.34149e-08
9.00687e-06
1.70122e-08
9.00444e-06
2.19458e-08
9.00192e-06
2.86396e-08
8.99931e-06
3.4607e-08
8.99718e-06
4.09744e-08
8.99568e-06
4.72386e-08
8.99505e-06
5.27975e-08
5.72575e-08
8.99497e-06
9.74461e-06
-2.32186e-09
9.74394e-06
-1.42461e-08
9.74396e-06
-1.43232e-08
9.74653e-06
-1.69745e-08
9.75079e-06
-2.47018e-08
9.75824e-06
-2.19771e-08
9.76051e-06
-1.5859e-08
9.75404e-06
-8.91633e-09
9.74318e-06
1.282e-09
9.73441e-06
8.13423e-09
9.73086e-06
1.13467e-08
9.72878e-06
1.54946e-08
9.72589e-06
1.99006e-08
9.72336e-06
2.44757e-08
9.72087e-06
3.11265e-08
9.71838e-06
3.71049e-08
9.7164e-06
4.29562e-08
9.7153e-06
4.83347e-08
9.71472e-06
5.33798e-08
5.72876e-08
9.71469e-06
1.05225e-05
-2.73869e-09
1.0525e-05
-1.67368e-08
1.05237e-05
-1.30829e-08
1.0528e-05
-2.11879e-08
1.05278e-05
-2.45441e-08
1.05296e-05
-2.37815e-08
1.05247e-05
-1.09727e-08
1.05194e-05
-3.58949e-09
1.05139e-05
6.77499e-09
1.05104e-05
1.16039e-08
1.05078e-05
1.39899e-08
1.05052e-05
1.80975e-08
1.05024e-05
2.26796e-08
1.04998e-05
2.71134e-08
1.04974e-05
3.35051e-08
1.04951e-05
3.94011e-08
1.04934e-05
4.46382e-08
1.04924e-05
4.93239e-08
1.0492e-05
5.38455e-08
5.71702e-08
1.04921e-05
1.13627e-05
-3.29145e-09
1.13657e-05
-1.97249e-08
1.13685e-05
-1.59129e-08
1.13698e-05
-2.24202e-08
1.13682e-05
-2.29784e-08
1.136e-05
-1.5606e-08
1.13559e-05
-6.796e-09
1.13523e-05
-2.58987e-11
1.13511e-05
7.97331e-09
1.13494e-05
1.33366e-08
1.13467e-05
1.66697e-08
1.1344e-05
2.08244e-08
1.13411e-05
2.5553e-08
1.13384e-05
2.97651e-08
1.13362e-05
3.57424e-08
1.13342e-05
4.13927e-08
1.13327e-05
4.61241e-08
1.13318e-05
5.02539e-08
1.13315e-05
5.41301e-08
5.68899e-08
1.13318e-05
1.227e-05
-3.95432e-09
1.22737e-05
-2.34431e-08
1.22772e-05
-1.93847e-08
1.22765e-05
-2.17393e-08
1.22751e-05
-2.15335e-08
1.22686e-05
-9.14143e-09
1.22616e-05
1.56739e-10
1.2258e-05
3.63965e-09
1.22564e-05
9.56225e-09
1.22548e-05
1.49229e-08
1.22525e-05
1.89777e-08
1.22499e-05
2.34583e-08
1.2247e-05
2.84146e-08
1.22444e-05
3.24169e-08
1.22422e-05
3.78642e-08
1.22406e-05
4.30277e-08
1.22392e-05
4.74772e-08
1.22385e-05
5.10434e-08
1.22383e-05
5.42526e-08
5.64588e-08
1.22388e-05
1.32496e-05
-4.64261e-09
1.32522e-05
-2.59823e-08
1.3256e-05
-2.32495e-08
1.32538e-05
-1.95439e-08
1.32492e-05
-1.68749e-08
1.3245e-05
-4.93722e-09
1.32406e-05
4.51883e-09
1.3237e-05
7.24114e-09
1.32347e-05
1.18859e-08
1.32328e-05
1.67528e-08
1.32306e-05
2.11921e-08
1.32283e-05
2.5816e-08
1.32256e-05
3.10961e-08
1.3223e-05
3.50091e-08
1.3221e-05
3.98926e-08
1.32196e-05
4.4393e-08
1.32185e-05
4.86284e-08
1.32178e-05
5.16627e-08
1.32179e-05
5.42353e-08
5.59005e-08
1.32184e-05
1.43073e-05
-5.20535e-09
1.43087e-05
-2.74056e-08
1.43116e-05
-2.61507e-08
1.43102e-05
-1.81403e-08
1.43036e-05
-1.02814e-08
1.42997e-05
-9.86552e-10
1.42969e-05
7.25591e-09
1.42941e-05
1.00838e-08
1.42916e-05
1.43448e-08
1.42894e-05
1.89839e-08
1.42871e-05
2.34594e-08
1.4285e-05
2.79936e-08
1.42826e-05
3.34891e-08
1.42801e-05
3.7431e-08
1.42783e-05
4.17819e-08
1.4277e-05
4.56122e-08
1.42762e-05
4.94899e-08
1.42758e-05
5.20822e-08
1.42759e-05
5.40901e-08
5.52348e-08
1.42766e-05
1.54492e-05
-5.43654e-09
1.5449e-05
-2.72135e-08
1.54489e-05
-2.60404e-08
1.54481e-05
-1.72909e-08
1.54443e-05
-6.47733e-09
1.54405e-05
2.73837e-09
1.54378e-05
1.00246e-08
1.54354e-05
1.24423e-08
1.54331e-05
1.66579e-08
1.54308e-05
2.13409e-08
1.54284e-05
2.58206e-08
1.54263e-05
3.01297e-08
1.54242e-05
3.55855e-08
1.5422e-05
3.95571e-08
1.54203e-05
4.34995e-08
1.54192e-05
4.66785e-08
1.54187e-05
5.00829e-08
1.54185e-05
5.2273e-08
1.54187e-05
5.38078e-08
5.44695e-08
1.54195e-05
1.66824e-05
-5.36761e-09
1.66815e-05
-2.6332e-08
1.66783e-05
-2.27903e-08
1.66763e-05
-1.52848e-08
1.66748e-05
-5.06703e-09
1.66731e-05
4.52177e-09
1.66706e-05
1.24329e-08
1.6668e-05
1.50825e-08
1.66658e-05
1.88714e-08
1.66635e-05
2.36085e-08
1.66612e-05
2.8186e-08
1.66591e-05
3.22427e-08
1.66572e-05
3.74457e-08
1.66554e-05
4.13496e-08
1.66539e-05
4.49651e-08
1.6653e-05
4.75691e-08
1.66527e-05
5.04492e-08
1.66527e-05
5.22309e-08
1.66532e-05
5.33674e-08
5.36033e-08
1.6654e-05
1.80141e-05
-5.03436e-09
1.80112e-05
-2.34585e-08
1.80084e-05
-1.99977e-08
1.80059e-05
-1.27393e-08
1.80044e-05
-3.64591e-09
1.80038e-05
5.17523e-09
1.80021e-05
1.4139e-08
1.79995e-05
1.76685e-08
1.79971e-05
2.12516e-08
1.7995e-05
2.57368e-08
1.79927e-05
3.04441e-08
1.79907e-05
3.42738e-08
1.7989e-05
3.91002e-08
1.79876e-05
4.28247e-08
1.79864e-05
4.61071e-08
1.79857e-05
4.82633e-08
1.79856e-05
5.06092e-08
1.79858e-05
5.1969e-08
1.79864e-05
5.27467e-08
5.26261e-08
1.79874e-05
1.94522e-05
-4.51725e-09
1.94486e-05
-1.99036e-08
1.94457e-05
-1.70846e-08
1.94433e-05
-1.02993e-08
1.94414e-05
-1.81893e-09
1.94407e-05
5.86371e-09
1.94398e-05
1.51308e-08
1.94375e-05
1.99272e-08
1.94351e-05
2.36481e-08
1.9433e-05
2.78295e-08
1.94309e-05
3.25252e-08
1.9429e-05
3.61662e-08
1.94276e-05
4.05676e-08
1.94264e-05
4.40044e-08
1.94256e-05
4.68869e-08
1.94251e-05
4.8729e-08
1.94252e-05
5.05574e-08
1.94257e-05
5.14893e-08
1.94265e-05
5.1935e-08
5.1517e-08
1.94276e-05
2.10052e-05
-3.86878e-09
2.10018e-05
-1.65596e-08
2.09986e-05
-1.38636e-08
2.09962e-05
-7.89664e-09
2.09941e-05
2.69453e-10
2.09931e-05
6.91084e-09
2.09922e-05
1.59892e-08
2.09904e-05
2.17424e-08
2.09881e-05
2.59145e-08
2.09861e-05
2.98502e-08
2.09842e-05
3.43854e-08
2.09826e-05
3.78372e-08
2.09813e-05
4.18169e-08
2.09805e-05
4.48436e-08
2.098e-05
4.73513e-08
2.09798e-05
4.89146e-08
2.09801e-05
5.0293e-08
2.09808e-05
5.08083e-08
2.09818e-05
5.09487e-08
5.0271e-08
2.0983e-05
2.26822e-05
-3.1531e-09
2.26789e-05
-1.32044e-08
2.26757e-05
-1.06974e-08
2.26733e-05
-5.51603e-09
2.26711e-05
2.44459e-09
2.26697e-05
8.30919e-09
2.26688e-05
1.69207e-08
2.26673e-05
2.3227e-08
2.26654e-05
2.78663e-08
2.26635e-05
3.1697e-08
2.26619e-05
3.60159e-08
2.26605e-05
3.92425e-08
2.26595e-05
4.28184e-08
2.2659e-05
4.53128e-08
2.26588e-05
4.75616e-08
2.26589e-05
4.88017e-08
2.26594e-05
4.97932e-08
2.26603e-05
4.99317e-08
2.26615e-05
4.97812e-08
4.88809e-08
2.26628e-05
2.44932e-05
-2.43009e-09
2.44904e-05
-1.03521e-08
2.44871e-05
-7.44447e-09
2.44846e-05
-3.03506e-09
2.44823e-05
4.74643e-09
2.44807e-05
9.97546e-09
2.44796e-05
1.79715e-08
2.44784e-05
2.4488e-08
2.44767e-05
2.94829e-08
2.44752e-05
3.32728e-08
2.44738e-05
3.73871e-08
2.44727e-05
4.03591e-08
2.4472e-05
4.34861e-08
2.44718e-05
4.54878e-08
2.44719e-05
4.74937e-08
2.44723e-05
4.8391e-08
2.44731e-05
4.90409e-08
2.44741e-05
4.88496e-08
2.44755e-05
4.84317e-08
4.73396e-08
2.4477e-05
2.64488e-05
-1.70057e-09
2.64462e-05
-7.68301e-09
2.64432e-05
-4.44063e-09
2.64407e-05
-6.01724e-10
2.64384e-05
7.07288e-09
2.64366e-05
1.1815e-08
2.64354e-05
1.91492e-08
2.64343e-05
2.55645e-08
2.6433e-05
3.07969e-08
2.64317e-05
3.45322e-08
2.64307e-05
3.84398e-08
2.64299e-05
4.11454e-08
2.64296e-05
4.37611e-08
2.64297e-05
4.54452e-08
2.643e-05
4.7107e-08
2.64308e-05
4.76783e-08
2.64318e-05
4.80302e-08
2.64331e-05
4.7557e-08
2.64346e-05
4.6909e-08
4.56512e-08
2.64363e-05
2.85606e-05
-1.01558e-09
2.85583e-05
-5.30586e-09
2.85555e-05
-1.65572e-09
2.85531e-05
1.79343e-09
2.85508e-05
9.331e-09
2.85489e-05
1.37347e-08
2.85476e-05
2.0426e-08
2.85467e-05
2.64753e-08
2.85457e-05
3.18072e-08
2.85448e-05
3.5445e-08
2.85441e-05
3.91324e-08
2.85437e-05
4.14949e-08
2.85438e-05
4.37454e-08
2.85441e-05
4.50943e-08
2.85448e-05
4.63963e-08
2.85458e-05
4.6671e-08
2.85471e-05
4.67444e-08
2.85486e-05
4.6049e-08
2.85503e-05
4.52027e-08
4.38155e-08
2.85522e-05
3.0841e-05
-3.38889e-10
3.08389e-05
-3.15942e-09
3.08363e-05
9.17775e-10
3.0834e-05
4.02985e-09
3.0832e-05
1.13568e-08
3.08301e-05
1.56405e-08
3.08288e-05
2.17504e-08
3.0828e-05
2.72322e-08
3.08274e-05
3.24712e-08
3.08268e-05
3.59642e-08
3.08266e-05
3.94088e-08
3.08267e-05
4.14032e-08
3.0827e-05
4.33846e-08
3.08277e-05
4.44096e-08
3.08287e-05
4.5362e-08
3.083e-05
4.53818e-08
3.08316e-05
4.52101e-08
3.08333e-05
4.43327e-08
3.08352e-05
4.33309e-08
4.18392e-08
3.08371e-05
3.33035e-05
3.11749e-10
3.33017e-05
-1.37182e-09
3.32993e-05
3.26348e-09
3.32972e-05
6.14359e-09
3.32954e-05
1.31878e-08
3.32937e-05
1.73218e-08
3.32925e-05
2.29789e-08
3.32919e-05
2.78083e-08
3.32916e-05
3.27807e-08
3.32914e-05
3.60991e-08
3.32916e-05
3.92664e-08
3.32921e-05
4.09285e-08
3.32928e-05
4.26415e-08
3.32938e-05
4.33708e-08
3.32952e-05
4.40039e-08
3.32968e-05
4.37909e-08
3.32986e-05
4.34232e-08
3.33005e-05
4.23913e-08
3.33026e-05
4.12806e-08
3.97128e-08
3.33047e-05
3.59625e-05
9.10267e-10
3.59609e-05
2.30945e-10
3.59589e-05
5.32703e-09
3.5957e-05
8.03839e-09
3.59555e-05
1.47036e-08
3.59541e-05
1.8649e-08
3.59531e-05
2.39983e-08
3.59527e-05
2.81689e-08
3.59528e-05
3.27288e-08
3.59531e-05
3.58136e-08
3.59537e-05
3.86451e-08
3.59546e-05
4.00745e-08
3.59557e-05
4.14902e-08
3.59571e-05
4.1959e-08
3.59588e-05
4.23202e-08
3.59607e-05
4.19014e-08
3.59627e-05
4.13771e-08
3.59649e-05
4.02342e-08
3.59671e-05
3.90481e-08
3.74456e-08
3.59694e-05
3.88339e-05
1.43034e-09
3.88326e-05
1.59429e-09
3.88308e-05
7.05747e-09
3.88292e-05
9.68106e-09
3.8828e-05
1.58637e-08
3.88271e-05
1.96105e-08
3.88264e-05
2.466e-08
3.88263e-05
2.82567e-08
3.88267e-05
3.23286e-08
3.88275e-05
3.50892e-08
3.88285e-05
3.75508e-08
3.88298e-05
3.88181e-08
3.88314e-05
3.99437e-08
3.88331e-05
4.01748e-08
3.88351e-05
4.03057e-08
3.88373e-05
3.97218e-08
3.88396e-05
3.90663e-08
3.8842e-05
3.78619e-08
3.88444e-05
3.66313e-08
3.50334e-08
3.88468e-05
4.19346e-05
1.86761e-09
4.19335e-05
2.69798e-09
4.19321e-05
8.43538e-09
4.19308e-05
1.09976e-08
4.193e-05
1.67036e-08
4.19294e-05
2.01193e-08
4.19292e-05
2.48718e-08
4.19296e-05
2.79413e-08
4.19303e-05
3.15323e-08
4.19316e-05
3.38849e-08
4.19331e-05
3.60258e-08
4.19348e-05
3.71172e-08
4.19367e-05
3.79755e-08
4.19389e-05
3.80254e-08
4.19412e-05
3.79557e-08
4.19437e-05
3.72624e-08
4.19463e-05
3.65012e-08
4.19489e-05
3.52747e-08
4.19515e-05
3.40323e-08
3.24691e-08
4.1954e-05
4.52828e-05
2.27421e-09
4.52819e-05
3.58172e-09
4.5281e-05
9.3164e-09
4.52801e-05
1.19089e-08
4.52797e-05
1.71199e-08
4.52796e-05
2.02117e-08
4.52799e-05
2.4582e-08
4.52807e-05
2.70912e-08
4.5282e-05
3.0259e-08
4.52837e-05
3.21932e-08
4.52856e-05
3.4068e-08
4.52878e-05
3.49576e-08
4.52902e-05
3.55835e-08
4.52927e-05
3.55094e-08
4.52954e-05
3.52807e-08
4.52981e-05
3.45215e-08
4.53009e-05
3.36938e-08
4.53037e-05
3.24719e-08
4.53065e-05
3.12533e-08
2.97494e-08
4.53092e-05
4.88984e-05
2.51098e-09
4.88977e-05
4.2644e-09
4.88972e-05
9.83166e-09
4.88967e-05
1.2337e-08
4.88968e-05
1.70305e-08
4.88973e-05
1.97249e-08
4.88982e-05
2.37272e-08
4.88995e-05
2.57274e-08
4.89013e-05
2.85424e-08
4.89034e-05
3.00614e-08
4.89058e-05
3.16615e-08
4.89084e-05
3.23221e-08
4.89112e-05
3.27882e-08
4.89141e-05
3.25981e-08
4.89171e-05
3.22784e-08
4.89202e-05
3.148e-08
4.89232e-05
3.06329e-08
4.89263e-05
2.94489e-08
4.89292e-05
2.8283e-08
2.68738e-08
4.89321e-05
5.28026e-05
2.58625e-09
5.28023e-05
4.64671e-09
5.28022e-05
9.87558e-09
5.28023e-05
1.2292e-08
5.28028e-05
1.64539e-08
5.28039e-05
1.86916e-08
5.28053e-05
2.22651e-08
5.28073e-05
2.37635e-08
5.28095e-05
2.63312e-08
5.28121e-05
2.7456e-08
5.2815e-05
2.87898e-08
5.28181e-05
2.92395e-08
5.28213e-05
2.9565e-08
5.28246e-05
2.93173e-08
5.28279e-05
2.89249e-08
5.28312e-05
2.81504e-08
5.28346e-05
2.73049e-08
5.28378e-05
2.62086e-08
5.2841e-05
2.51142e-08
2.38351e-08
5.2844e-05
5.70185e-05
2.56821e-09
5.70184e-05
4.76853e-09
5.70187e-05
9.58602e-09
5.70194e-05
1.1633e-08
5.70206e-05
1.5223e-08
5.70223e-05
1.70149e-08
5.70243e-05
2.0214e-08
5.70269e-05
2.12064e-08
5.70297e-05
2.34915e-08
5.70328e-05
2.43408e-08
5.70362e-05
2.54005e-08
5.70398e-05
2.57055e-08
5.70434e-05
2.59112e-08
5.70471e-05
2.56552e-08
5.70508e-05
2.52457e-08
5.70544e-05
2.45209e-08
5.70579e-05
2.37401e-08
5.70614e-05
2.27434e-08
5.70648e-05
2.17737e-08
2.06241e-08
5.7068e-05
6.15711e-05
2.42934e-09
6.15714e-05
4.45573e-09
6.15722e-05
8.81157e-09
6.15734e-05
1.04327e-08
6.15752e-05
1.33757e-08
6.15775e-05
1.47478e-08
6.15802e-05
1.74911e-08
6.15832e-05
1.81647e-08
6.15867e-05
2.00593e-08
6.15903e-05
2.07163e-08
6.15941e-05
2.15459e-08
6.15981e-05
2.17098e-08
6.16022e-05
2.18532e-08
6.16063e-05
2.15724e-08
6.16103e-05
2.12183e-08
6.16143e-05
2.05459e-08
6.16181e-05
1.98808e-08
6.16219e-05
1.90027e-08
6.16254e-05
1.82104e-08
1.72745e-08
6.16288e-05
6.64872e-05
2.05097e-09
6.64879e-05
3.7012e-09
6.64895e-05
7.25067e-09
6.64912e-05
8.68042e-09
6.64935e-05
1.11232e-08
6.64962e-05
1.20719e-08
6.64995e-05
1.41678e-08
6.65031e-05
1.45557e-08
6.65071e-05
1.61004e-08
6.65113e-05
1.6499e-08
6.65156e-05
1.72279e-08
6.65201e-05
1.72496e-08
6.65245e-05
1.73867e-08
6.6529e-05
1.71139e-08
6.65334e-05
1.68401e-08
6.65376e-05
1.62811e-08
6.65418e-05
1.57512e-08
6.65457e-05
1.50357e-08
6.65496e-05
1.43832e-08
1.35951e-08
6.65532e-05
7.17955e-05
1.6648e-09
7.17965e-05
2.75525e-09
7.17985e-05
5.25915e-09
7.18009e-05
6.28238e-09
7.18039e-05
8.09891e-09
7.18073e-05
8.63064e-09
7.18112e-05
1.03424e-08
7.18154e-05
1.03532e-08
7.18198e-05
1.16507e-08
7.18245e-05
1.17868e-08
7.18294e-05
1.24021e-08
7.18343e-05
1.23451e-08
7.18392e-05
1.24817e-08
7.1844e-05
1.22612e-08
7.18488e-05
1.20876e-08
7.18534e-05
1.16718e-08
7.18578e-05
1.13114e-08
7.18621e-05
1.0792e-08
7.18661e-05
1.0348e-08
9.79026e-09
7.18699e-05
7.75281e-05
7.75295e-05
7.7532e-05
7.7535e-05
7.75385e-05
7.75426e-05
7.75471e-05
7.75518e-05
7.7557e-05
7.75622e-05
7.75677e-05
7.75731e-05
7.75786e-05
7.75839e-05
7.75891e-05
7.75942e-05
7.7599e-05
7.76036e-05
7.7608e-05
7.76122e-05
3.77528e-06
6.65641e-08
3.68054e-06
9.47424e-08
3.58022e-06
1.00312e-07
3.48171e-06
9.85122e-08
3.38362e-06
9.8091e-08
3.28435e-06
9.92697e-08
3.18319e-06
1.01159e-07
3.08009e-06
1.03099e-07
2.97521e-06
1.04889e-07
2.86858e-06
1.06624e-07
2.76023e-06
1.08356e-07
2.65008e-06
1.10143e-07
2.53806e-06
1.12021e-07
2.42413e-06
1.13934e-07
2.30838e-06
1.15748e-07
2.19103e-06
1.17354e-07
2.07216e-06
1.1887e-07
1.95188e-06
1.20278e-07
1.83053e-06
1.21347e-07
1.70882e-06
1.21709e-07
1.58765e-06
1.21174e-07
1.46818e-06
1.19469e-07
1.35251e-06
1.15664e-07
1.24315e-06
1.09369e-07
1.14346e-06
9.96852e-08
1.0571e-06
8.63643e-08
9.87083e-07
7.00139e-08
9.34627e-07
5.24557e-08
8.97793e-07
3.68337e-08
8.72506e-07
2.52874e-08
8.54773e-07
1.77332e-08
8.41731e-07
1.30419e-08
8.31306e-07
1.04246e-08
8.22285e-07
9.02085e-09
8.13879e-07
8.40608e-09
8.05474e-07
8.40537e-09
7.96694e-07
8.78034e-09
7.87399e-07
9.29468e-09
7.77557e-07
9.84234e-09
7.67242e-07
1.03142e-08
7.56583e-07
1.06597e-08
7.45692e-07
1.08905e-08
7.34663e-07
1.10295e-08
7.23599e-07
1.10635e-08
7.12583e-07
1.10166e-08
7.01664e-07
1.09185e-08
6.90895e-07
1.07691e-08
6.80316e-07
1.05792e-08
6.69936e-07
1.03799e-08
6.59777e-07
1.01591e-08
6.49828e-07
9.94866e-09
6.40148e-07
9.67999e-09
6.30688e-07
9.46041e-09
6.21483e-07
9.20458e-09
6.12483e-07
8.99997e-09
6.03715e-07
8.76792e-09
5.95163e-07
8.55224e-09
5.86841e-07
8.32244e-09
5.7875e-07
8.09087e-09
5.70863e-07
7.88627e-09
5.6323e-07
7.63362e-09
5.55806e-07
7.42337e-09
5.4858e-07
7.22607e-09
5.41555e-07
7.02501e-09
5.34676e-07
6.87912e-09
5.27974e-07
6.70224e-09
5.2136e-07
6.614e-09
5.14955e-07
6.40459e-09
5.08641e-07
6.31414e-09
5.02542e-07
6.0992e-09
4.96572e-07
5.97012e-09
4.90743e-07
5.82863e-09
4.8503e-07
5.71319e-09
4.79382e-07
5.64805e-09
4.73841e-07
5.54071e-09
4.68403e-07
5.43867e-09
4.63056e-07
5.3468e-09
4.57914e-07
5.1416e-09
4.52778e-07
5.136e-09
4.47851e-07
4.92689e-09
4.4292e-07
4.93182e-09
4.38118e-07
4.80201e-09
4.33427e-07
4.69025e-09
4.28784e-07
4.64354e-09
4.24332e-07
4.45128e-09
4.19982e-07
4.35058e-09
4.15638e-07
4.34438e-09
4.11593e-07
4.04476e-09
4.07468e-07
4.12499e-09
4.03625e-07
3.84255e-09
3.99772e-07
3.85271e-09
3.96136e-07
3.63626e-09
3.92575e-07
3.56114e-09
3.89172e-07
3.40317e-09
3.85836e-07
3.33547e-09
3.82703e-07
3.13354e-09
3.79561e-07
3.14225e-09
3.76592e-07
2.96874e-09
3.73421e-07
3.17124e-09
3.58649e-09
4.16512e-06
6.08387e-08
4.16871e-06
9.11536e-08
4.16273e-06
1.06294e-07
4.1525e-06
1.08737e-07
4.14163e-06
1.08965e-07
4.12972e-06
1.11179e-07
4.11549e-06
1.15388e-07
4.09831e-06
1.20277e-07
4.07811e-06
1.25091e-07
4.05489e-06
1.29844e-07
4.02859e-06
1.34657e-07
3.99905e-06
1.39684e-07
3.96606e-06
1.45003e-07
3.92945e-06
1.50548e-07
3.88902e-06
1.56172e-07
3.84468e-06
1.61704e-07
3.79629e-06
1.67256e-07
3.74371e-06
1.72855e-07
3.68687e-06
1.78186e-07
3.62581e-06
1.82771e-07
3.56079e-06
1.86198e-07
3.49214e-06
1.8812e-07
3.42069e-06
1.87113e-07
3.34751e-06
1.82546e-07
3.27399e-06
1.73208e-07
3.20205e-06
1.58301e-07
3.13377e-06
1.38292e-07
3.07063e-06
1.15602e-07
3.01354e-06
9.39196e-08
2.96214e-06
7.66865e-08
2.91485e-06
6.50219e-08
2.87021e-06
5.76819e-08
2.82732e-06
5.33162e-08
2.78554e-06
5.07998e-08
2.74466e-06
4.92917e-08
2.70443e-06
4.8633e-08
2.66462e-06
4.85899e-08
2.62511e-06
4.88087e-08
2.58584e-06
4.9112e-08
2.54686e-06
4.92848e-08
2.50821e-06
4.9311e-08
2.46994e-06
4.91605e-08
2.43208e-06
4.88892e-08
2.39471e-06
4.84422e-08
2.35784e-06
4.78836e-08
2.32154e-06
4.72143e-08
2.28586e-06
4.64496e-08
2.25087e-06
4.55724e-08
2.21656e-06
4.46906e-08
2.18298e-06
4.3738e-08
2.15013e-06
4.27933e-08
2.1181e-06
4.1718e-08
2.08682e-06
4.07367e-08
2.05636e-06
3.96676e-08
2.02664e-06
3.8712e-08
1.99773e-06
3.76823e-08
1.96955e-06
3.67337e-08
1.94213e-06
3.57421e-08
1.91542e-06
3.48049e-08
1.88943e-06
3.38751e-08
1.86414e-06
3.2924e-08
1.83954e-06
3.20189e-08
1.81558e-06
3.11829e-08
1.79228e-06
3.03264e-08
1.76952e-06
2.96437e-08
1.74733e-06
2.88887e-08
1.72557e-06
2.83783e-08
1.70435e-06
2.76195e-08
1.68353e-06
2.71341e-08
1.66328e-06
2.63553e-08
1.64342e-06
2.58244e-08
1.62406e-06
2.51932e-08
1.60503e-06
2.47443e-08
1.58637e-06
2.43067e-08
1.56798e-06
2.39285e-08
1.54999e-06
2.34268e-08
1.53228e-06
2.30554e-08
1.51507e-06
2.235e-08
1.49806e-06
2.21509e-08
1.48155e-06
2.14335e-08
1.46517e-06
2.13128e-08
1.44923e-06
2.07435e-08
1.4335e-06
2.04255e-08
1.4182e-06
1.99421e-08
1.40317e-06
1.9483e-08
1.3886e-06
1.89176e-08
1.37417e-06
1.8771e-08
1.36042e-06
1.77994e-08
1.34668e-06
1.78609e-08
1.33367e-06
1.68512e-08
1.3207e-06
1.68259e-08
1.30848e-06
1.58602e-08
1.29631e-06
1.57239e-08
1.28491e-06
1.48054e-08
1.27355e-06
1.46962e-08
1.26304e-06
1.36386e-08
1.25238e-06
1.38066e-08
1.24257e-06
1.2782e-08
1.23247e-06
1.32677e-08
1.37859e-08
4.4972e-06
6.06537e-08
4.5028e-06
8.55545e-08
4.50623e-06
1.02857e-07
4.50562e-06
1.09352e-07
4.50406e-06
1.10523e-07
4.50344e-06
1.11799e-07
4.50345e-06
1.15374e-07
4.50331e-06
1.20426e-07
4.50254e-06
1.25854e-07
4.50106e-06
1.31331e-07
4.49883e-06
1.36887e-07
4.49576e-06
1.42749e-07
4.49174e-06
1.49026e-07
4.4866e-06
1.55684e-07
4.48019e-06
1.62587e-07
4.47233e-06
1.69558e-07
4.46296e-06
1.76633e-07
4.45189e-06
1.83921e-07
4.439e-06
1.91071e-07
4.42414e-06
1.9764e-07
4.40727e-06
2.03064e-07
4.38842e-06
2.06974e-07
4.36744e-06
2.0809e-07
4.34461e-06
2.05379e-07
4.31994e-06
1.97877e-07
4.29379e-06
1.84447e-07
4.26664e-06
1.65441e-07
4.23918e-06
1.43065e-07
4.21237e-06
1.20728e-07
4.18688e-06
1.02175e-07
4.16242e-06
8.94809e-08
4.13833e-06
8.17729e-08
4.11414e-06
7.75033e-08
4.08966e-06
7.52818e-08
4.06471e-06
7.42426e-08
4.03931e-06
7.4034e-08
4.01337e-06
7.45297e-08
3.98684e-06
7.53361e-08
3.95965e-06
7.63075e-08
3.93183e-06
7.71035e-08
3.90337e-06
7.77703e-08
3.87431e-06
7.82198e-08
3.84465e-06
7.85551e-08
3.81445e-06
7.86404e-08
3.78372e-06
7.86152e-08
3.75254e-06
7.83939e-08
3.72092e-06
7.80671e-08
3.68896e-06
7.75264e-08
3.65667e-06
7.69874e-08
3.6241e-06
7.63054e-08
3.59128e-06
7.56102e-08
3.55831e-06
7.46936e-08
3.52516e-06
7.38883e-08
3.49193e-06
7.28912e-08
3.4586e-06
7.20493e-08
3.42525e-06
7.10246e-08
3.39187e-06
7.0121e-08
3.35856e-06
6.90506e-08
3.32526e-06
6.8107e-08
3.29211e-06
6.70233e-08
3.25907e-06
6.59645e-08
3.22624e-06
6.48496e-08
3.19355e-06
6.38707e-08
3.16115e-06
6.27269e-08
3.12889e-06
6.18994e-08
3.09694e-06
6.08447e-08
3.06514e-06
6.01724e-08
3.03368e-06
5.90842e-08
3.00242e-06
5.8392e-08
2.97159e-06
5.71873e-08
2.941e-06
5.64143e-08
2.91086e-06
5.53324e-08
2.88091e-06
5.46926e-08
2.85139e-06
5.38304e-08
2.82201e-06
5.33084e-08
2.79311e-06
5.2322e-08
2.76442e-06
5.17505e-08
2.7363e-06
5.04649e-08
2.70837e-06
5.00828e-08
2.68103e-06
4.8773e-08
2.65383e-06
4.85115e-08
2.62723e-06
4.73411e-08
2.60075e-06
4.69113e-08
2.57501e-06
4.56811e-08
2.54941e-06
4.50833e-08
2.52455e-06
4.37783e-08
2.49981e-06
4.35085e-08
2.47599e-06
4.16212e-08
2.45218e-06
4.16687e-08
2.42941e-06
3.96248e-08
2.40662e-06
3.96115e-08
2.385e-06
3.74862e-08
2.36332e-06
3.73946e-08
2.34292e-06
3.52146e-08
2.3224e-06
3.52117e-08
2.30335e-06
3.26838e-08
2.28403e-06
3.31343e-08
2.26602e-06
3.0789e-08
2.24779e-06
3.15009e-08
3.13644e-08
4.85763e-06
6.1771e-08
4.86193e-06
8.12517e-08
4.8665e-06
9.82859e-08
4.86782e-06
1.08029e-07
4.86714e-06
1.1121e-07
4.86693e-06
1.12009e-07
4.86756e-06
1.14741e-07
4.86888e-06
1.1911e-07
4.87034e-06
1.2439e-07
4.87169e-06
1.29981e-07
4.8729e-06
1.35677e-07
4.87401e-06
1.41637e-07
4.87503e-06
1.48006e-07
4.87594e-06
1.54778e-07
4.87669e-06
1.6184e-07
4.87723e-06
1.69016e-07
4.87759e-06
1.76276e-07
4.87775e-06
1.83758e-07
4.87769e-06
1.91133e-07
4.87735e-06
1.97973e-07
4.87674e-06
2.03677e-07
4.87588e-06
2.07835e-07
4.87448e-06
2.09491e-07
4.87237e-06
2.07483e-07
4.86932e-06
2.00927e-07
4.86495e-06
1.8882e-07
4.85896e-06
1.71428e-07
4.85149e-06
1.50543e-07
4.84307e-06
1.29144e-07
4.83454e-06
1.10702e-07
4.82626e-06
9.77667e-08
4.81801e-06
9.00167e-08
4.80956e-06
8.59606e-08
4.80082e-06
8.40195e-08
4.79162e-06
8.34362e-08
4.78209e-06
8.35641e-08
4.77222e-06
8.44058e-08
4.76199e-06
8.55639e-08
4.7513e-06
8.70008e-08
4.74016e-06
8.82445e-08
4.72848e-06
8.94497e-08
4.71628e-06
9.04148e-08
4.70348e-06
9.13555e-08
4.69013e-06
9.19913e-08
4.67614e-06
9.26017e-08
4.66159e-06
9.29459e-08
4.64641e-06
9.32508e-08
4.63066e-06
9.32692e-08
4.61431e-06
9.33403e-08
4.5974e-06
9.32189e-08
4.57989e-06
9.31219e-08
4.56184e-06
9.27405e-08
4.54319e-06
9.25363e-08
4.52404e-06
9.20468e-08
4.50428e-06
9.181e-08
4.48404e-06
9.12608e-08
4.46319e-06
9.09693e-08
4.44191e-06
9.03285e-08
4.42002e-06
9.0002e-08
4.39773e-06
8.93139e-08
4.37487e-06
8.88213e-08
4.35165e-06
8.8074e-08
4.32789e-06
8.76304e-08
4.30379e-06
8.68214e-08
4.2792e-06
8.64884e-08
4.25426e-06
8.57898e-08
4.22886e-06
8.55752e-08
4.20314e-06
8.48021e-08
4.17697e-06
8.45615e-08
4.15063e-06
8.3525e-08
4.12382e-06
8.32197e-08
4.09697e-06
8.21832e-08
4.06961e-06
8.20554e-08
4.04225e-06
8.1193e-08
4.01439e-06
8.11661e-08
3.98653e-06
8.01791e-08
3.95834e-06
7.99424e-08
3.93017e-06
7.86355e-08
3.90171e-06
7.8541e-08
3.87337e-06
7.71212e-08
3.8446e-06
7.72716e-08
3.81619e-06
7.57578e-08
3.78722e-06
7.58843e-08
3.7588e-06
7.40995e-08
3.72998e-06
7.38981e-08
3.70161e-06
7.21526e-08
3.67301e-06
7.21035e-08
3.645e-06
6.96359e-08
3.61671e-06
6.99617e-08
3.58923e-06
6.70997e-08
3.56136e-06
6.74778e-08
3.53461e-06
6.42379e-08
3.50739e-06
6.46151e-08
3.48144e-06
6.11637e-08
3.45507e-06
6.1582e-08
3.43011e-06
5.76506e-08
3.40474e-06
5.84975e-08
3.38063e-06
5.49003e-08
3.35619e-06
5.59432e-08
5.47656e-08
5.24736e-06
6.23845e-08
5.25044e-06
7.81739e-08
5.25466e-06
9.40686e-08
5.25713e-06
1.05559e-07
5.25751e-06
1.10822e-07
5.25726e-06
1.1226e-07
5.25757e-06
1.14436e-07
5.25875e-06
1.1793e-07
5.26041e-06
1.22731e-07
5.26212e-06
1.28266e-07
5.26375e-06
1.34054e-07
5.26537e-06
1.40011e-07
5.26701e-06
1.46365e-07
5.26871e-06
1.53079e-07
5.27045e-06
1.60102e-07
5.27226e-06
1.6721e-07
5.27416e-06
1.74368e-07
5.27626e-06
1.81659e-07
5.27854e-06
1.8885e-07
5.28108e-06
1.95438e-07
5.28385e-06
2.00904e-07
5.28694e-06
2.04746e-07
5.2901e-06
2.06335e-07
5.29312e-06
2.04463e-07
5.2957e-06
1.98347e-07