/*--------------------------------*- C++ -*----------------------------------*\
| =========                 |                                                 |
| \\      /  F ield         | OpenFOAM: The Open Source CFD Toolbox           |
|  \\    /   O peration     | Version:  v2106                                 |
|   \\  /    A nd           | Website:  www.openfoam.com                      |
|    \\/     M anipulation  |                                                 |
\*---------------------------------------------------------------------------*/
FoamFile
{
    version     2.0;
    format      ascii;
    arch        "LSB;label=32;scalar=64";
    class       volVectorField;
    location    "1.6";
    object      U;
}
// * * * * * * * * * * * * * * * * * * * * * * * * * * * * * * * * * * * * * //

dimensions      [0 1 -1 0 0 0 0];

internalField   nonuniform List<vector> 
4800
(
(0.960545 1.64228e-05 0)
(1.03887 -0.00037974 0)
(0.963813 0.000113258 0)
(1.03534 -0.000145601 0)
(0.967677 0.000242803 0)
(1.03187 2.80114e-05 0)
(0.97148 0.000363713 0)
(1.02882 -0.000337332 0)
(0.974435 0.000103203 0)
(1.02565 -0.000564894 0)
(0.977042 -3.36956e-05 0)
(1.02249 -0.000617169 0)
(0.979343 -5.78411e-05 0)
(1.01952 -0.00060633 0)
(0.98131 -7.03981e-05 0)
(1.01657 -0.000595968 0)
(0.982839 -6.68871e-05 0)
(1.01348 -0.000583952 0)
(0.983623 0.000186159 0)
(1.01019 0.00056258 0)
(0.982876 -4.81728e-05 0)
(1.01462 -0.000341979 0)
(0.986526 7.58541e-05 0)
(1.01133 -0.000124236 0)
(0.99022 0.000229023 0)
(1.00851 2.52709e-05 0)
(0.99337 0.000352232 0)
(1.00644 -0.000351879 0)
(0.995347 9.00413e-05 0)
(1.00452 -0.000595343 0)
(0.996711 -6.20424e-05 0)
(1.00285 -0.000671689 0)
(0.997563 -9.58934e-05 0)
(1.00146 -0.000675958 0)
(0.997979 -8.97377e-05 0)
(1.00015 -0.000641956 0)
(0.99792 3.43359e-05 0)
(0.998733 -0.000273594 0)
(0.997394 0.000919358 0)
(0.99725 0.00174685 0)
(0.996054 4.88587e-05 0)
(1.00272 -0.000404081 0)
(0.997257 0.000137081 0)
(1.0017 -0.000196039 0)
(0.998581 0.000253866 0)
(1.00116 -3.74991e-05 0)
(0.999614 0.000336116 0)
(1.00108 -0.000316995 0)
(0.999984 5.30475e-05 0)
(1.00073 -0.000422162 0)
(1.00008 -0.000163676 0)
(1.00032 -0.000441483 0)
(0.999902 -0.000242048 0)
(0.999896 -0.000439904 0)
(0.999527 -0.000263717 0)
(0.999324 -0.000314587 0)
(0.998938 -1.85237e-05 0)
(0.998541 0.000397428 0)
(0.998093 0.00118788 0)
(0.99765 0.00220928 0)
(0.999524 9.48522e-06 0)
(1.00029 -0.000402973 0)
(0.999621 0.000108424 0)
(1.00018 -0.000164957 0)
(1.0001 0.000212974 0)
(1.00034 3.21678e-05 0)
(1.00056 0.000260689 0)
(1.00069 -0.000236998 0)
(1.00062 -5.20314e-05 0)
(1.00062 -0.000370984 0)
(1.00053 -0.000273875 0)
(1.00038 -0.000431035 0)
(1.00024 -0.000358362 0)
(1.00004 -0.000447851 0)
(0.999817 -0.000354701 0)
(0.999538 -0.000251458 0)
(0.999244 1.45576e-05 0)
(0.998871 0.000514192 0)
(0.998522 0.00138448 0)
(0.998135 0.00243562 0)
(1.0001 3.71887e-05 0)
(0.999982 -0.000381966 0)
(0.999998 8.09171e-05 0)
(1.00005 -0.00013887 0)
(1.00035 0.000148026 0)
(1.00031 4.45291e-05 0)
(1.00073 0.000167706 0)
(1.0007 -0.000164182 0)
(1.00077 -0.000125645 0)
(1.00067 -0.00030593 0)
(1.00067 -0.000330024 0)
(1.00044 -0.00040579 0)
(1.00038 -0.000407506 0)
(1.00013 -0.000393314 0)
(0.999971 -0.000343448 0)
(0.99967 -0.000140587 0)
(0.999461 0.000180371 0)
(0.999134 0.000937014 0)
(0.998886 0.00183784 0)
(0.998483 0.00277123 0)
(1.00022 1.57471e-05 0)
(0.999898 -0.000362102 0)
(1.00011 1.26979e-05 0)
(0.999994 -8.56903e-05 0)
(1.00045 6.47407e-05 0)
(1.00027 0.000122106 0)
(1.0008 7.9787e-05 0)
(1.00066 -0.000152207 0)
(1.00084 -0.000186605 0)
(1.00063 -0.000311822 0)
(1.00074 -0.000385064 0)
(1.00043 -0.000400216 0)
(1.00046 -0.000439977 0)
(1.00013 -0.000358287 0)
(1.00007 -0.000313231 0)
(0.999731 2.28561e-05 0)
(0.99967 0.000591861 0)
(0.999346 0.00140666 0)
(0.999161 0.00214269 0)
(0.998714 0.00289079 0)
(1.00028 1.91441e-05 0)
(0.999842 -0.000327523 0)
(1.00018 -3.6314e-05 0)
(0.999951 -5.16645e-05 0)
(1.00051 5.39421e-06 0)
(1.00023 0.000111644 0)
(1.00083 4.79898e-05 0)
(1.00061 -0.000178726 0)
(1.00087 -0.000210849 0)
(1.00059 -0.000335175 0)
(1.00077 -0.000381824 0)
(1.0004 -0.000418296 0)
(1.0005 -0.000415424 0)
(1.00013 -0.00033941 0)
(1.00015 -0.00012184 0)
(0.999847 0.000435286 0)
(0.999873 0.00108346 0)
(0.999504 0.0016638 0)
(0.999371 0.00225169 0)
(0.998904 0.00288715 0)
(1.00027 9.32738e-06 0)
(0.999845 -0.000283622 0)
(1.0002 -0.000119174 0)
(0.999963 -2.66092e-05 0)
(1.00052 -2.35362e-05 0)
(1.00025 8.56292e-05 0)
(1.00082 1.88418e-05 0)
(1.0006 -0.000205609 0)
(1.00086 -0.000243931 0)
(1.00058 -0.000344534 0)
(1.00077 -0.000403794 0)
(1.0004 -0.000409316 0)
(1.00052 -0.000368939 0)
(1.00018 -0.000173426 0)
(1.00027 0.000293449 0)
(0.999992 0.000825774 0)
(1.00001 0.0012791 0)
(0.999649 0.00171639 0)
(0.999549 0.00224191 0)
(0.999116 0.00284349 0)
(1.00021 1.99772e-07 0)
(0.9999 -0.000254878 0)
(1.00016 -0.000140104 0)
(1.00002 -7.78825e-05 0)
(1.00048 -1.75809e-05 0)
(1.00029 3.45949e-05 0)
(1.00076 -4.59511e-05 0)
(1.00063 -0.000238954 0)
(1.00082 -0.000274267 0)
(1.00061 -0.000364858 0)
(1.00074 -0.000399768 0)
(1.00044 -0.000382708 0)
(1.00053 -0.000221817 0)
(1.00031 0.000233621 0)
(1.00036 0.000659105 0)
(1.00012 0.000979996 0)
(1.0001 0.00133243 0)
(0.999814 0.0017514 0)
(0.999714 0.00225991 0)
(0.999351 0.00283707 0)
(1.00013 1.9217e-06 0)
(0.999973 -0.000246172 0)
(1.0001 -0.000137031 0)
(1.0001 -0.000135369 0)
(1.00043 -6.29484e-05 0)
(1.00035 -1.35113e-05 0)
(1.0007 -8.42718e-05 0)
(1.00066 -0.000271517 0)
(1.00077 -0.000302919 0)
(1.00065 -0.000359922 0)
(1.00071 -0.000377038 0)
(1.00051 -0.000209523 0)
(1.00059 0.000151622 0)
(1.00044 0.000532178 0)
(1.00041 0.000802031 0)
(1.00023 0.0010398 0)
(1.00019 0.00138558 0)
(0.999995 0.00181505 0)
(0.999884 0.00231338 0)
(0.999596 0.00285798 0)
(1.00008 -1.83244e-05 0)
(1.00002 -0.000188996 0)
(1.00006 -0.000161953 0)
(1.00015 -0.000146002 0)
(1.0004 -0.000169387 0)
(1.00039 -5.95833e-05 0)
(1.00065 -0.000148169 0)
(1.00069 -0.000276095 0)
(1.00074 -0.000316521 0)
(1.00068 -0.000312393 0)
(1.00071 -0.000216324 0)
(1.00063 0.000164969 0)
(1.00064 0.000408319 0)
(1.00052 0.000607271 0)
(1.00045 0.000831801 0)
(1.00034 0.00108865 0)
(1.0003 0.00144602 0)
(1.00018 0.00188093 0)
(1.00007 0.00236712 0)
(0.999833 0.00287513 0)
(1.00004 -2.77651e-06 0)
(1.00005 -0.000187619 0)
(1.00004 -0.000157753 0)
(1.00017 -0.000182529 0)
(1.00039 -0.000242643 0)
(1.00041 -0.000187535 0)
(1.00062 -0.000179605 0)
(1.00069 -0.000288202 0)
(1.00072 -0.000266391 0)
(1.00072 -0.000172312 0)
(1.00077 0.000124093 0)
(1.00069 0.000348138 0)
(1.00067 0.000467197 0)
(1.00059 0.000624372 0)
(1.00052 0.000881479 0)
(1.00046 0.00116667 0)
(1.00043 0.00152962 0)
(1.00036 0.00195652 0)
(1.00026 0.00242635 0)
(1.00006 0.00289991 0)
(1.00003 -3.5982e-05 0)
(1.00005 -0.000130655 0)
(1.00004 -0.000187299 0)
(1.00017 -0.000177156 0)
(1.00038 -0.000343063 0)
(1.00042 -0.000277191 0)
(1.00061 -0.000266743 0)
(1.0007 -0.000227035 0)
(1.00074 -9.46597e-05 0)
(1.00078 0.000139366 0)
(1.00081 0.00027141 0)
(1.00073 0.000388111 0)
(1.0007 0.000509705 0)
(1.00066 0.000683994 0)
(1.00061 0.000966064 0)
(1.00058 0.00127142 0)
(1.00058 0.00162444 0)
(1.00055 0.00202955 0)
(1.00046 0.0024767 0)
(1.00028 0.00291741 0)
(1.00003 -1.54415e-05 0)
(1.00005 -0.000177268 0)
(1.00003 -0.000144054 0)
(1.00016 -0.000256045 0)
(1.00037 -0.000324972 0)
(1.00043 -0.000386831 0)
(1.00062 -0.000241999 0)
(1.00074 -0.000130697 0)
(1.00079 0.000139268 0)
(1.0008 0.000259514 0)
(1.00082 0.000309526 0)
(1.00076 0.000426307 0)
(1.00075 0.000576545 0)
(1.00074 0.000764578 0)
(1.00071 0.001052 0)
(1.0007 0.00136576 0)
(1.00073 0.00170498 0)
(1.00073 0.00208358 0)
(1.00067 0.00250174 0)
(1.0005 0.00291186 0)
(1.00003 -3.53252e-05 0)
(1.00005 -0.000201985 0)
(1.00003 -0.000161816 0)
(1.00015 -0.00028209 0)
(1.00036 -0.000337737 0)
(1.00045 -0.000308605 0)
(1.00066 -0.000163926 0)
(1.00078 -2.00284e-05 0)
(1.00082 0.000152704 0)
(1.00083 0.000263121 0)
(1.00086 0.000354117 0)
(1.00081 0.000489998 0)
(1.00081 0.000664305 0)
(1.00083 0.00085222 0)
(1.00083 0.00113362 0)
(1.00084 0.00144707 0)
(1.00089 0.00177934 0)
(1.00092 0.00213099 0)
(1.00088 0.00251822 0)
(1.00072 0.00289981 0)
(1.00002 -3.50097e-05 0)
(1.00004 -0.000235191 0)
(1.00003 -0.000207157 0)
(1.00015 -0.000285112 0)
(1.00037 -0.00033716 0)
(1.00048 -0.000186572 0)
(1.00068 -3.67914e-05 0)
(1.00081 2.54349e-05 0)
(1.00086 0.000165226 0)
(1.00087 0.000291523 0)
(1.0009 0.000408225 0)
(1.00087 0.000559752 0)
(1.00088 0.000750135 0)
(1.00092 0.000937119 0)
(1.00096 0.00120509 0)
(1.00099 0.00151193 0)
(1.00105 0.00183851 0)
(1.00111 0.00216646 0)
(1.00109 0.00252285 0)
(1.00095 0.00287585 0)
(1.00002 -4.12757e-05 0)
(1.00004 -0.000273884 0)
(1.00004 -0.000263083 0)
(1.00015 -0.000260696 0)
(1.0004 -0.000281632 0)
(1.00052 -0.000109247 0)
(1.00072 4.57813e-05 0)
(1.00084 0.000107698 0)
(1.00091 0.000219157 0)
(1.00091 0.000342356 0)
(1.00095 0.000466638 0)
(1.00094 0.000625428 0)
(1.00097 0.000829243 0)
(1.00102 0.00102159 0)
(1.00109 0.00127618 0)
(1.00114 0.00157165 0)
(1.00123 0.00189107 0)
(1.0013 0.00219974 0)
(1.00131 0.00252749 0)
(1.00118 0.00285112 0)
(1.00002 -4.91042e-05 0)
(1.00005 -0.00029009 0)
(1.00006 -0.000304896 0)
(1.00017 -0.000249474 0)
(1.00043 -0.000183137 0)
(1.00057 -4.61998e-05 0)
(1.00076 9.98725e-05 0)
(1.00088 0.000161198 0)
(1.00095 0.000264919 0)
(1.00097 0.00038994 0)
(1.00102 0.000520533 0)
(1.00102 0.000681544 0)
(1.00106 0.000895818 0)
(1.00113 0.00109539 0)
(1.00123 0.00134013 0)
(1.00131 0.00161923 0)
(1.00141 0.00192833 0)
(1.0015 0.00222174 0)
(1.00153 0.00252385 0)
(1.00141 0.0028189 0)
(1.00002 -5.36313e-05 0)
(1.00004 -0.00029466 0)
(1.00008 -0.000319151 0)
(1.00021 -0.00024248 0)
(1.00047 -0.000110091 0)
(1.00062 2.3364e-05 0)
(1.0008 0.00015118 0)
(1.00092 0.000205444 0)
(1.00101 0.000306659 0)
(1.00103 0.000434571 0)
(1.00109 0.000573086 0)
(1.00112 0.000733992 0)
(1.00117 0.000953189 0)
(1.00125 0.00116056 0)
(1.00137 0.00139935 0)
(1.00149 0.0016613 0)
(1.00161 0.00195541 0)
(1.0017 0.0022344 0)
(1.00174 0.00251396 0)
(1.00164 0.00278175 0)
(1.00002 -5.3368e-05 0)
(1.00004 -0.000295528 0)
(1.00011 -0.000291546 0)
(1.00025 -0.000216829 0)
(1.00052 -8.28023e-05 0)
(1.00067 6.09542e-05 0)
(1.00084 0.000197148 0)
(1.00097 0.000257049 0)
(1.00106 0.000355057 0)
(1.0011 0.000484822 0)
(1.00117 0.000630615 0)
(1.00122 0.000790115 0)
(1.00129 0.00100779 0)
(1.00139 0.00121962 0)
(1.00153 0.00145397 0)
(1.00167 0.00169855 0)
(1.0018 0.00197355 0)
(1.00191 0.00223567 0)
(1.00196 0.00249625 0)
(1.00187 0.00273968 0)
(1.00002 -5.05772e-05 0)
(1.00004 -0.000276254 0)
(1.00015 -0.000260582 0)
(1.0003 -0.000180312 0)
(1.00058 -6.18213e-05 0)
(1.00073 7.34948e-05 0)
(1.00089 0.000224706 0)
(1.00102 0.000303829 0)
(1.00113 0.00040044 0)
(1.00117 0.000530414 0)
(1.00125 0.000684479 0)
(1.00132 0.000843188 0)
(1.00141 0.0010566 0)
(1.00153 0.00126858 0)
(1.00169 0.00149936 0)
(1.00185 0.00172827 0)
(1.00201 0.00198394 0)
(1.00213 0.00222819 0)
(1.00218 0.00247186 0)
(1.0021 0.00269475 0)
(1.00002 -4.87503e-05 0)
(1.00005 -0.000239255 0)
(1.00018 -0.000220975 0)
(1.00035 -0.000145856 0)
(1.00063 -3.77398e-05 0)
(1.0008 8.21962e-05 0)
(1.00096 0.000241627 0)
(1.00107 0.000343917 0)
(1.00119 0.000448946 0)
(1.00126 0.000578307 0)
(1.00135 0.000738256 0)
(1.00144 0.000896412 0)
(1.00155 0.00110137 0)
(1.00168 0.00130865 0)
(1.00185 0.00153308 0)
(1.00203 0.00174909 0)
(1.00221 0.00198602 0)
(1.00234 0.00221258 0)
(1.00241 0.00243879 0)
(1.00232 0.00264332 0)
(1.00002 -4.27482e-05 0)
(1.00006 -0.000199541 0)
(1.00022 -0.000183038 0)
(1.00039 -0.000116411 0)
(1.00069 -1.0502e-05 0)
(1.00086 9.58566e-05 0)
(1.00102 0.000257034 0)
(1.00113 0.000377841 0)
(1.00126 0.000491481 0)
(1.00134 0.000621195 0)
(1.00145 0.000782677 0)
(1.00155 0.000942008 0)
(1.00169 0.00113966 0)
(1.00183 0.00133878 0)
(1.00202 0.00155661 0)
(1.00221 0.0017608 0)
(1.00241 0.00198052 0)
(1.00255 0.00218766 0)
(1.00262 0.00239582 0)
(1.00254 0.00258166 0)
(1.00002 -3.57189e-05 0)
(1.00006 -0.000162951 0)
(1.00024 -0.000144383 0)
(1.00044 -8.51339e-05 0)
(1.00073 1.95297e-05 0)
(1.00093 0.000115205 0)
(1.00109 0.00027142 0)
(1.0012 0.000406603 0)
(1.00134 0.000530973 0)
(1.00143 0.000662024 0)
(1.00155 0.000824122 0)
(1.00167 0.000982331 0)
(1.00183 0.00117346 0)
(1.00199 0.00136162 0)
(1.00219 0.00157045 0)
(1.0024 0.00176246 0)
(1.00261 0.00196595 0)
(1.00276 0.00215389 0)
(1.00284 0.00234487 0)
(1.00276 0.00251384 0)
(1.00002 -2.86795e-05 0)
(1.00007 -0.000128417 0)
(1.00027 -0.000106266 0)
(1.00048 -5.37091e-05 0)
(1.00078 5.19067e-05 0)
(1.00099 0.000138589 0)
(1.00117 0.000288027 0)
(1.00128 0.000431291 0)
(1.00141 0.00056596 0)
(1.00152 0.000698241 0)
(1.00166 0.000859436 0)
(1.0018 0.00101465 0)
(1.00197 0.00119819 0)
(1.00215 0.00137619 0)
(1.00236 0.00157299 0)
(1.00258 0.00175278 0)
(1.0028 0.00194066 0)
(1.00296 0.00211162 0)
(1.00304 0.00228558 0)
(1.00296 0.00243963 0)
(1.00002 -2.09321e-05 0)
(1.00007 -9.83991e-05 0)
(1.00029 -6.99237e-05 0)
(1.00052 -2.28976e-05 0)
(1.00083 8.56302e-05 0)
(1.00105 0.000167968 0)
(1.00124 0.000306747 0)
(1.00136 0.00045163 0)
(1.0015 0.000593826 0)
(1.00162 0.000727685 0)
(1.00177 0.000886433 0)
(1.00192 0.00103915 0)
(1.00211 0.00121542 0)
(1.0023 0.00138359 0)
(1.00253 0.00156801 0)
(1.00275 0.00173395 0)
(1.00298 0.00190736 0)
(1.00315 0.00206146 0)
(1.00324 0.00221902 0)
(1.00317 0.00235717 0)
(1.00002 -1.38479e-05 0)
(1.00008 -7.10015e-05 0)
(1.00031 -3.50094e-05 0)
(1.00055 8.68542e-06 0)
(1.00087 0.000117689 0)
(1.00111 0.000197148 0)
(1.00132 0.000328544 0)
(1.00145 0.000470257 0)
(1.00159 0.000617273 0)
(1.00172 0.000751846 0)
(1.00188 0.000907045 0)
(1.00205 0.00105354 0)
(1.00225 0.00122183 0)
(1.00245 0.00137787 0)
(1.00269 0.00155007 0)
(1.00293 0.00170262 0)
(1.00316 0.00186211 0)
(1.00334 0.00200156 0)
(1.00344 0.00214354 0)
(1.00336 0.00226715 0)
(1.00002 -6.93344e-06 0)
(1.00008 -4.55533e-05 0)
(1.00034 -3.50544e-06 0)
(1.00059 3.83951e-05 0)
(1.00092 0.000148339 0)
(1.00116 0.000227696 0)
(1.00139 0.000351093 0)
(1.00153 0.00048597 0)
(1.00168 0.000634205 0)
(1.00182 0.00076793 0)
(1.00199 0.000919481 0)
(1.00217 0.00105806 0)
(1.00239 0.00121666 0)
(1.00261 0.00136112 0)
(1.00286 0.00151999 0)
(1.0031 0.00166095 0)
(1.00334 0.00180636 0)
(1.00352 0.001933 0)
(1.00362 0.00206042 0)
(1.00354 0.00217075 0)
(1.00002 -5.8392e-08 0)
(1.00009 -2.39237e-05 0)
(1.00036 2.55832e-05 0)
(1.00063 6.6011e-05 0)
(1.00097 0.000175227 0)
(1.00122 0.000256886 0)
(1.00146 0.000373483 0)
(1.00162 0.000497321 0)
(1.00177 0.000642791 0)
(1.00192 0.000774069 0)
(1.0021 0.00092183 0)
(1.0023 0.0010544 0)
(1.00252 0.00120252 0)
(1.00275 0.0013363 0)
(1.00301 0.00148085 0)
(1.00326 0.00160915 0)
(1.00351 0.00174103 0)
(1.00369 0.00185431 0)
(1.00379 0.00196894 0)
(1.00372 0.00206624 0)
(1.00002 6.09852e-06 0)
(1.00009 -5.76748e-06 0)
(1.00037 5.25275e-05 0)
(1.00066 9.20319e-05 0)
(1.00101 0.000197244 0)
(1.00127 0.000278744 0)
(1.00153 0.000394725 0)
(1.0017 0.000508468 0)
(1.00187 0.000646311 0)
(1.00203 0.000772834 0)
(1.00222 0.000912624 0)
(1.00242 0.0010389 0)
(1.00265 0.00117582 0)
(1.0029 0.00129864 0)
(1.00317 0.00143005 0)
(1.00342 0.00154533 0)
(1.00367 0.00166509 0)
(1.00385 0.00176609 0)
(1.00396 0.00186924 0)
(1.00388 0.00195523 0)
(1.00002 1.17978e-05 0)
(1.0001 1.07382e-05 0)
(1.00039 7.37132e-05 0)
(1.00068 0.000116331 0)
(1.00105 0.000215859 0)
(1.00132 0.000294292 0)
(1.0016 0.000408413 0)
(1.00178 0.000513545 0)
(1.00196 0.00064329 0)
(1.00213 0.000763537 0)
(1.00233 0.000894453 0)
(1.00254 0.00101272 0)
(1.00278 0.00113832 0)
(1.00303 0.00125012 0)
(1.00331 0.001369 0)
(1.00356 0.00147216 0)
(1.00382 0.00157968 0)
(1.004 0.00166958 0)
(1.00411 0.0017613 0)
(1.00403 0.00183706 0)
(1.00002 1.62797e-05 0)
(1.0001 2.39237e-05 0)
(1.0004 9.28078e-05 0)
(1.00071 0.00013331 0)
(1.00109 0.000230232 0)
(1.00137 0.000306561 0)
(1.00166 0.000415333 0)
(1.00186 0.00051237 0)
(1.00205 0.000632206 0)
(1.00223 0.000744218 0)
(1.00243 0.000866847 0)
(1.00265 0.000975263 0)
(1.0029 0.00109006 0)
(1.00316 0.00119034 0)
(1.00344 0.00129692 0)
(1.0037 0.00138838 0)
(1.00396 0.00148358 0)
(1.00414 0.00156304 0)
(1.00425 0.00164386 0)
(1.00417 0.00171029 0)
(1.00002 2.05972e-05 0)
(1.00011 3.39985e-05 0)
(1.00041 0.000106829 0)
(1.00074 0.000149261 0)
(1.00113 0.000237356 0)
(1.00142 0.00031016 0)
(1.00172 0.000416256 0)
(1.00193 0.000503442 0)
(1.00213 0.0006137 0)
(1.00232 0.000714482 0)
(1.00254 0.00082668 0)
(1.00276 0.000926354 0)
(1.00302 0.00102915 0)
(1.00328 0.00112025 0)
(1.00356 0.00121385 0)
(1.00383 0.00129516 0)
(1.00409 0.00137814 0)
(1.00427 0.00144795 0)
(1.00438 0.00151873 0)
(1.0043 0.00157638 0)
(1.00002 2.42958e-05 0)
(1.00011 4.28042e-05 0)
(1.00043 0.00011287 0)
(1.00076 0.000159082 0)
(1.00116 0.000242413 0)
(1.00147 0.000305913 0)
(1.00178 0.000405361 0)
(1.00199 0.000484396 0)
(1.00221 0.000586044 0)
(1.00241 0.000675189 0)
(1.00263 0.000775314 0)
(1.00286 0.00086478 0)
(1.00312 0.000956408 0)
(1.00339 0.00103742 0)
(1.00368 0.00111991 0)
(1.00395 0.00119066 0)
(1.0042 0.00126309 0)
(1.00439 0.00132323 0)
(1.00449 0.00138513 0)
(1.00442 0.00143449 0)
(1.00002 2.53738e-05 0)
(1.00012 4.90327e-05 0)
(1.00044 0.000118048 0)
(1.00078 0.000157994 0)
(1.00119 0.00023743 0)
(1.00151 0.0002967 0)
(1.00183 0.000384333 0)
(1.00206 0.000453604 0)
(1.00228 0.000548096 0)
(1.00249 0.000624547 0)
(1.00272 0.000714381 0)
(1.00295 0.000790829 0)
(1.00321 0.000872753 0)
(1.00348 0.000942647 0)
(1.00378 0.00101484 0)
(1.00405 0.00107562 0)
(1.00431 0.00113757 0)
(1.00449 0.00118923 0)
(1.0046 0.00124192 0)
(1.00452 0.00128458 0)
(1.00002 2.54581e-05 0)
(1.00012 5.17994e-05 0)
(1.00045 0.000115525 0)
(1.0008 0.000156875 0)
(1.00122 0.000222171 0)
(1.00155 0.000275729 0)
(1.00187 0.00035706 0)
(1.00211 0.000410229 0)
(1.00235 0.000497109 0)
(1.00256 0.000561788 0)
(1.0028 0.000639738 0)
(1.00303 0.000706047 0)
(1.0033 0.000775463 0)
(1.00357 0.000837442 0)
(1.00387 0.000897512 0)
(1.00414 0.000950787 0)
(1.0044 0.00100191 0)
(1.00459 0.00104636 0)
(1.00469 0.00109022 0)
(1.00461 0.00112655 0)
(1.00001 2.54166e-05 0)
(1.00013 5.02801e-05 0)
(1.00046 0.00010996 0)
(1.00081 0.000143994 0)
(1.00123 0.000204771 0)
(1.00158 0.000244202 0)
(1.00191 0.00031804 0)
(1.00216 0.000359247 0)
(1.00241 0.00043244 0)
(1.00262 0.000487623 0)
(1.00286 0.00055219 0)
(1.0031 0.000607271 0)
(1.00338 0.000665686 0)
(1.00365 0.000716573 0)
(1.00394 0.000767669 0)
(1.00422 0.000810193 0)
(1.00448 0.000854004 0)
(1.00467 0.000888778 0)
(1.00476 0.000926544 0)
(1.00469 0.000954713 0)
(1.00002 2.19752e-05 0)
(1.00013 4.49276e-05 0)
(1.00046 9.65356e-05 0)
(1.00082 0.000123882 0)
(1.00125 0.000173071 0)
(1.00161 0.000206297 0)
(1.00194 0.000261476 0)
(1.00219 0.000296077 0)
(1.00245 0.000354095 0)
(1.00267 0.000397356 0)
(1.00292 0.000449465 0)
(1.00316 0.000491147 0)
(1.00344 0.000538067 0)
(1.00371 0.000576851 0)
(1.00401 0.000617393 0)
(1.00428 0.000649692 0)
(1.00454 0.00068388 0)
(1.00473 0.000710583 0)
(1.00483 0.000739675 0)
(1.00475 0.000761536 0)
(1.00002 1.97792e-05 0)
(1.00013 3.78388e-05 0)
(1.00046 7.94835e-05 0)
(1.00083 0.000105101 0)
(1.00126 0.000145392 0)
(1.00163 0.000171308 0)
(1.00196 0.00022035 0)
(1.00223 0.000242473 0)
(1.00249 0.000295041 0)
(1.00271 0.000326127 0)
(1.00296 0.000372715 0)
(1.0032 0.000404651 0)
(1.00349 0.000444587 0)
(1.00376 0.000475976 0)
(1.00406 0.000510085 0)
(1.00433 0.000536784 0)
(1.00459 0.000565438 0)
(1.00478 0.000587693 0)
(1.00487 0.000612427 0)
(1.0048 0.000630754 0)
(1.00001 1.06011e-05 0)
(1.00013 1.73119e-05 0)
(1.00047 3.72088e-05 0)
(1.00084 4.7268e-05 0)
(1.00127 6.97596e-05 0)
(1.00165 7.74094e-05 0)
(1.00198 0.000105829 0)
(1.00225 0.000112154 0)
(1.00253 0.000139779 0)
(1.00275 0.000152807 0)
(1.00301 0.000176723 0)
(1.00325 0.000190931 0)
(1.00354 0.000211314 0)
(1.00381 0.000225551 0)
(1.00411 0.000243347 0)
(1.00438 0.000255383 0)
(1.00464 0.000270605 0)
(1.00483 0.000280471 0)
(1.00493 0.000293832 0)
(1.00485 0.000301937 0)
(0.98421 0.00207571 0)
(0.960113 0.00330819 0)
(0.935807 0.00366892 0)
(0.911021 0.00362542 0)
(0.885789 0.0035395 0)
(0.860154 0.003511 0)
(0.834143 0.00351338 0)
(0.807732 0.00350893 0)
(0.780922 0.00348596 0)
(0.753677 0.00344957 0)
(0.725994 0.00340522 0)
(0.69785 0.00335779 0)
(0.66923 0.00331021 0)
(0.640085 0.00326345 0)
(0.61044 0.00321091 0)
(0.580354 0.00315023 0)
(0.549905 0.00309094 0)
(0.519032 0.00303026 0)
(0.487835 0.00295562 0)
(0.456391 0.00285339 0)
(0.425009 0.002723 0)
(0.393817 0.00256067 0)
(0.363281 0.00235158 0)
(0.333973 0.00207093 0)
(0.306691 0.00166651 0)
(0.282476 0.00115807 0)
(0.262244 0.000568316 0)
(0.246698 5.4835e-05 0)
(0.235656 -0.000289363 0)
(0.22805 -0.000453804 0)
(0.22267 -0.000506338 0)
(0.21877 -0.000481928 0)
(0.215755 -0.00044569 0)
(0.213248 -0.000398689 0)
(0.211008 -0.000344144 0)
(0.208856 -0.000287788 0)
(0.206636 -0.000235346 0)
(0.204311 -0.000189332 0)
(0.201838 -0.000149532 0)
(0.199244 -0.000116577 0)
(0.196534 -9.00307e-05 0)
(0.193757 -6.86011e-05 0)
(0.190924 -5.14987e-05 0)
(0.188077 -3.80497e-05 0)
(0.185224 -2.73976e-05 0)
(0.182396 -1.84667e-05 0)
(0.179596 -1.10539e-05 0)
(0.176843 -4.88948e-06 0)
(0.174139 3.5276e-07 0)
(0.171489 4.84129e-06 0)
(0.168895 8.8279e-06 0)
(0.166363 1.17833e-05 0)
(0.163895 1.48164e-05 0)
(0.161488 1.70259e-05 0)
(0.15914 1.92787e-05 0)
(0.156848 2.0643e-05 0)
(0.154616 2.1622e-05 0)
(0.152437 2.2128e-05 0)
(0.150324 2.22722e-05 0)
(0.148258 2.24619e-05 0)
(0.146265 2.18871e-05 0)
(0.144313 2.18208e-05 0)
(0.142438 2.14691e-05 0)
(0.140586 2.10648e-05 0)
(0.13881 2.07688e-05 0)
(0.137041 1.99982e-05 0)
(0.135343 1.96795e-05 0)
(0.133643 1.83978e-05 0)
(0.132024 1.80931e-05 0)
(0.130401 1.68455e-05 0)
(0.12887 1.62747e-05 0)
(0.127321 1.56566e-05 0)
(0.125866 1.48745e-05 0)
(0.124362 1.46115e-05 0)
(0.122964 1.37876e-05 0)
(0.121496 1.34241e-05 0)
(0.120163 1.28033e-05 0)
(0.118747 1.17587e-05 0)
(0.11749 1.18989e-05 0)
(0.116119 1.07329e-05 0)
(0.114928 1.08087e-05 0)
(0.113582 1.03119e-05 0)
(0.11246 9.62611e-06 0)
(0.111138 9.83885e-06 0)
(0.110101 8.56901e-06 0)
(0.108811 8.56886e-06 0)
(0.107862 8.54568e-06 0)
(0.106591 7.30149e-06 0)
(0.105744 7.86169e-06 0)
(0.104488 6.80763e-06 0)
(0.103748 6.89734e-06 0)
(0.1025 6.41019e-06 0)
(0.101889 5.91763e-06 0)
(0.100632 5.96275e-06 0)
(0.100168 5.39755e-06 0)
(0.098879 5.25583e-06 0)
(0.0985841 4.9866e-06 0)
(0.0972122 5.25229e-06 0)
(0.0971006 5.80792e-06 0)
(0.0954694 7.85531e-06 0)
(0.996744 0.0039925 0)
(0.995838 0.00589555 0)
(0.99459 0.0065639 0)
(0.992952 0.00651071 0)
(0.990847 0.00634247 0)
(0.988185 0.00628892 0)
(0.984964 0.00633456 0)
(0.981121 0.00640879 0)
(0.976666 0.00647227 0)
(0.971521 0.00652331 0)
(0.965681 0.00656746 0)
(0.959064 0.00661268 0)
(0.951654 0.00666388 0)
(0.943348 0.00671773 0)
(0.934156 0.00676601 0)
(0.92402 0.00679862 0)
(0.912977 0.00682192 0)
(0.900905 0.0068416 0)
(0.887835 0.00684988 0)
(0.873696 0.00683032 0)
(0.858605 0.00677275 0)
(0.842534 0.00667062 0)
(0.825651 0.00650243 0)
(0.808171 0.00622958 0)
(0.790426 0.00578956 0)
(0.772908 0.00516869 0)
(0.756153 0.00438358 0)
(0.740663 0.00354155 0)
(0.726652 0.00275715 0)
(0.713952 0.00213386 0)
(0.702195 0.00169485 0)
(0.69114 0.00140087 0)
(0.680579 0.00119842 0)
(0.670394 0.00104757 0)
(0.660474 0.000941723 0)
(0.650777 0.000873773 0)
(0.641202 0.000832295 0)
(0.631736 0.00080416 0)
(0.622322 0.000782512 0)
(0.612994 0.000762 0)
(0.603728 0.000740224 0)
(0.594548 0.000716923 0)
(0.585459 0.00069284 0)
(0.576476 0.000666936 0)
(0.567612 0.000640063 0)
(0.558869 0.000612703 0)
(0.550278 0.000584767 0)
(0.541827 0.000556805 0)
(0.53356 0.000530036 0)
(0.525436 0.000503652 0)
(0.517515 0.000478823 0)
(0.509752 0.000453172 0)
(0.502201 0.000430461 0)
(0.494816 0.000407634 0)
(0.48764 0.000387708 0)
(0.480626 0.000367976 0)
(0.473825 0.000350118 0)
(0.467165 0.000332616 0)
(0.460726 0.00031611 0)
(0.454399 0.000300957 0)
(0.44832 0.000285402 0)
(0.442309 0.000271484 0)
(0.436571 0.000258745 0)
(0.430863 0.000246543 0)
(0.425436 0.000236573 0)
(0.419991 0.000226437 0)
(0.414827 0.00021907 0)
(0.409609 0.000208766 0)
(0.404677 0.000201781 0)
(0.39968 0.000191719 0)
(0.394989 0.000184446 0)
(0.390195 0.000176807 0)
(0.385738 0.0001707 0)
(0.381092 0.000165551 0)
(0.376836 0.000159837 0)
(0.372299 0.000153942 0)
(0.36825 0.000148665 0)
(0.363845 0.000140979 0)
(0.36001 0.000137834 0)
(0.355737 0.000130474 0)
(0.352102 0.000128113 0)
(0.347919 0.000122343 0)
(0.344495 0.000117835 0)
(0.340376 0.000113865 0)
(0.337229 0.000108004 0)
(0.333153 0.000103449 0)
(0.330287 0.000101048 0)
(0.326271 9.31235e-05 0)
(0.323693 9.26199e-05 0)
(0.319727 8.51026e-05 0)
(0.317472 8.36748e-05 0)
(0.31352 7.74172e-05 0)
(0.31166 7.48492e-05 0)
(0.307663 6.97289e-05 0)
(0.306269 6.75123e-05 0)
(0.302176 6.20326e-05 0)
(0.301315 6.13225e-05 0)
(0.296993 5.62091e-05 0)
(0.296726 5.90687e-05 0)
(0.292006 6.37804e-05 0)
(0.997172 0.00352768 0)
(0.996666 0.0047649 0)
(0.99634 0.00546838 0)
(0.996217 0.00559809 0)
(0.996235 0.00551655 0)
(0.99626 0.00548089 0)
(0.996272 0.00556053 0)
(0.99621 0.00570954 0)
(0.996099 0.00587399 0)
(0.995869 0.00603479 0)
(0.995531 0.00619106 0)
(0.995001 0.00634861 0)
(0.994282 0.0065144 0)
(0.993278 0.00668555 0)
(0.992017 0.00685787 0)
(0.990431 0.00701918 0)
(0.988558 0.00717667 0)
(0.986286 0.00733784 0)
(0.983644 0.00749085 0)
(0.980535 0.007614 0)
(0.977009 0.00769013 0)
(0.972974 0.00770998 0)
(0.968484 0.00764757 0)
(0.963506 0.00745338 0)
(0.95815 0.00707649 0)
(0.952461 0.00648052 0)
(0.94665 0.0056935 0)
(0.940804 0.0047986 0)
(0.935099 0.00392652 0)
(0.929495 0.00321355 0)
(0.923996 0.00272553 0)
(0.918501 0.00241549 0)
(0.91304 0.00222669 0)
(0.907533 0.00209966 0)
(0.902007 0.00202109 0)
(0.896398 0.00197733 0)
(0.89072 0.00195691 0)
(0.8849 0.0019463 0)
(0.878979 0.00193816 0)
(0.872884 0.00192346 0)
(0.866694 0.00190281 0)
(0.860312 0.00187522 0)
(0.853852 0.00184315 0)
(0.847201 0.00180491 0)
(0.840502 0.00176325 0)
(0.833609 0.001718 0)
(0.826713 0.00167026 0)
(0.819622 0.00161899 0)
(0.812575 0.00156832 0)
(0.805332 0.00151585 0)
(0.798162 0.00146411 0)
(0.790818 0.00140931 0)
(0.783564 0.0013577 0)
(0.776154 0.00130433 0)
(0.768856 0.00125498 0)
(0.761408 0.00120414 0)
(0.754102 0.0011565 0)
(0.746637 0.00110844 0)
(0.739366 0.0010632 0)
(0.731897 0.0010183 0)
(0.72471 0.000974562 0)
(0.717268 0.000932532 0)
(0.710187 0.000893035 0)
(0.702803 0.000853827 0)
(0.695849 0.000819815 0)
(0.688532 0.000784652 0)
(0.681704 0.000756316 0)
(0.674479 0.00072339 0)
(0.667769 0.000697262 0)
(0.660664 0.00066555 0)
(0.654119 0.000640184 0)
(0.647129 0.000613074 0)
(0.640786 0.000591037 0)
(0.633865 0.000569317 0)
(0.62774 0.000550368 0)
(0.620853 0.000528669 0)
(0.614967 0.000510685 0)
(0.608159 0.000486602 0)
(0.602513 0.000472874 0)
(0.595817 0.000449716 0)
(0.5904 0.000438416 0)
(0.583787 0.000419059 0)
(0.578647 0.000405442 0)
(0.572036 0.000387702 0)
(0.56731 0.000373222 0)
(0.560659 0.000355338 0)
(0.556338 0.000345788 0)
(0.549713 0.00032303 0)
(0.545787 0.000317378 0)
(0.539186 0.00029468 0)
(0.535718 0.000288661 0)
(0.529083 0.000267159 0)
(0.526193 0.000260597 0)
(0.519432 0.000240303 0)
(0.517239 0.00023469 0)
(0.510274 0.000213269 0)
(0.508902 0.000212723 0)
(0.501606 0.00019248 0)
(0.501066 0.000194706 0)
(0.493361 0.00019556 0)
(0.997683 0.00347662 0)
(0.997125 0.00447811 0)
(0.996721 0.00523761 0)
(0.996544 0.00561193 0)
(0.996622 0.00569447 0)
(0.996787 0.0057015 0)
(0.997036 0.00576163 0)
(0.99727 0.00589117 0)
(0.997569 0.00605061 0)
(0.997844 0.00621804 0)
(0.998175 0.00638323 0)
(0.998449 0.00655131 0)
(0.998748 0.00672427 0)
(0.998937 0.00690578 0)
(0.999136 0.00708919 0)
(0.999235 0.00726856 0)
(0.999373 0.00744273 0)
(0.999388 0.0076219 0)
(0.999423 0.00778715 0)
(0.99931 0.00792435 0)
(0.99922 0.00800829 0)
(0.998956 0.00803676 0)
(0.998688 0.00797388 0)
(0.998191 0.00777669 0)
(0.997651 0.00740304 0)
(0.996823 0.00682892 0)
(0.995922 0.00607469 0)
(0.994691 0.0052199 0)
(0.993389 0.00438035 0)
(0.991778 0.00367782 0)
(0.990149 0.00318185 0)
(0.988281 0.00286953 0)
(0.986493 0.00268293 0)
(0.984525 0.00256765 0)
(0.982674 0.00250083 0)
(0.98064 0.00245915 0)
(0.97872 0.00243658 0)
(0.976571 0.00242201 0)
(0.974525 0.00241298 0)
(0.972205 0.0023987 0)
(0.969987 0.00238153 0)
(0.96744 0.00235821 0)
(0.965008 0.0023331 0)
(0.962211 0.00230131 0)
(0.959552 0.00226806 0)
(0.956485 0.00222984 0)
(0.953598 0.00219049 0)
(0.950265 0.00214568 0)
(0.94715 0.00210254 0)
(0.943562 0.00205673 0)
(0.940219 0.00201184 0)
(0.936391 0.00196213 0)
(0.932817 0.00191654 0)
(0.928752 0.00186683 0)
(0.924962 0.00182219 0)
(0.920656 0.00177377 0)
(0.91667 0.00172968 0)
(0.912112 0.00168186 0)
(0.907955 0.00163878 0)
(0.903132 0.00159231 0)
(0.898834 0.00154809 0)
(0.893752 0.00150225 0)
(0.889324 0.00146121 0)
(0.884009 0.00141587 0)
(0.879452 0.00137889 0)
(0.873931 0.00133704 0)
(0.869228 0.00130392 0)
(0.863532 0.00126342 0)
(0.858679 0.00123107 0)
(0.85282 0.0011895 0)
(0.847882 0.00115678 0)
(0.84183 0.00111799 0)
(0.836886 0.00108916 0)
(0.830599 0.001055 0)
(0.825696 0.0010302 0)
(0.819165 0.000995451 0)
(0.814299 0.000970372 0)
(0.807608 0.000932324 0)
(0.802748 0.00091039 0)
(0.795957 0.000873859 0)
(0.791122 0.000854536 0)
(0.78417 0.000820903 0)
(0.7795 0.000801349 0)
(0.772257 0.000766536 0)
(0.767915 0.000745959 0)
(0.760388 0.000711866 0)
(0.756328 0.000695899 0)
(0.748659 0.000655824 0)
(0.744849 0.000644687 0)
(0.737061 0.000604169 0)
(0.73361 0.000593347 0)
(0.725609 0.000552617 0)
(0.722704 0.000542506 0)
(0.714378 0.000501853 0)
(0.712164 0.000493993 0)
(0.703473 0.000450598 0)
(0.702042 0.00044854 0)
(0.692945 0.000410261 0)
(0.692313 0.000409004 0)
(0.682745 0.000395967 0)
(0.998065 0.00360092 0)
(0.997461 0.00443428 0)
(0.997023 0.00514967 0)
(0.996733 0.00561701 0)
(0.996791 0.00579644 0)
(0.996914 0.00582753 0)
(0.997221 0.00584978 0)
(0.997446 0.00592496 0)
(0.997814 0.00604568 0)
(0.998083 0.0061894 0)