/*--------------------------------*- C++ -*----------------------------------*\
| =========                 |                                                 |
| \\      /  F ield         | OpenFOAM: The Open Source CFD Toolbox           |
|  \\    /   O peration     | Version:  v2106                                 |
|   \\  /    A nd           | Website:  www.openfoam.com                      |
|    \\/     M anipulation  |                                                 |
\*---------------------------------------------------------------------------*/
FoamFile
{
    version     2.0;
    format      ascii;
    arch        "LSB;label=32;scalar=64";
    class       volScalarField;
    location    "1.7";
    object      p;
}
// * * * * * * * * * * * * * * * * * * * * * * * * * * * * * * * * * * * * * //

dimensions      [0 2 -2 0 0 0 0];

internalField   nonuniform List<scalar> 
4800
(
-1.34481e-10
6.97172e-05
-1.14015e-05
-8.47206e-05
-0.000136906
-0.000217296
-0.00027275
-0.000304623
-0.000343164
-0.000371516
-0.00032774
-0.000214365
-9.02024e-05
7.01344e-05
0.000288883
0.000603437
0.00101733
0.00155948
0.00222086
0.00292023
1.25404e-05
6.37287e-05
-9.33417e-06
-8.66674e-05
-0.00013202
-0.00021988
-0.000267653
-0.000304962
-0.000337208
-0.00037281
-0.000315474
-0.000216644
-8.28112e-05
6.64876e-05
0.000295
0.000595062
0.00102564
0.00150729
0.00200784
0.00253301
1.36867e-05
6.23802e-05
-8.61062e-06
-8.74536e-05
-0.000130548
-0.000220719
-0.000265709
-0.000303948
-0.000336051
-0.000370402
-0.000314127
-0.000214806
-8.17197e-05
6.55347e-05
0.000292642
0.000575618
0.000962119
0.00138801
0.00182561
0.00226581
2.73792e-05
5.72271e-05
-7.38387e-06
-8.79581e-05
-0.000128144
-0.000220384
-0.000264998
-0.000300973
-0.000337169
-0.000364011
-0.000310927
-0.000210655
-7.74447e-05
6.70728e-05
0.000280828
0.000548911
0.000894138
0.00127646
0.00163218
0.00198823
3.72157e-05
5.56012e-05
-6.82052e-06
-8.75386e-05
-0.000127454
-0.000218882
-0.000265697
-0.000296022
-0.000336971
-0.000359669
-0.000304582
-0.000206751
-7.53311e-05
6.45646e-05
0.000262435
0.000511826
0.00081372
0.00111625
0.00138462
0.00171803
4.8478e-05
5.3586e-05
-7.6169e-06
-8.58159e-05
-0.000128162
-0.000215213
-0.000267061
-0.000291207
-0.000334866
-0.00035336
-0.000299018
-0.000203175
-7.54464e-05
5.88054e-05
0.000236269
0.000457067
0.000674761
0.000902786
0.00116546
0.00148943
5.94952e-05
5.41666e-05
-9.29383e-06
-8.35416e-05
-0.000128595
-0.000212428
-0.000264625
-0.000287241
-0.00033204
-0.000347959
-0.000294002
-0.000201202
-7.81201e-05
4.55822e-05
0.000191756
0.000336144
0.000497068
0.000723722
0.000985961
0.00129042
7.02617e-05
5.76056e-05
-1.38256e-05
-8.1867e-05
-0.000127535
-0.000209411
-0.000261483
-0.000283156
-0.000327979
-0.000343877
-0.000289319
-0.000201575
-8.62385e-05
9.5036e-06
7.88421e-05
0.000197878
0.000367036
0.000579767
0.000815635
0.00109073
7.98743e-05
6.35179e-05
-1.41086e-05
-8.35076e-05
-0.000126691
-0.000204183
-0.00025733
-0.000279153
-0.000324244
-0.000340794
-0.000286689
-0.000209527
-0.000118943
-8.00576e-05
-3.05149e-05
9.93335e-05
0.000262055
0.000437209
0.000635256
0.000882655
9.21081e-05
6.99156e-05
-1.10807e-05
-8.38188e-05
-0.000127345
-0.000197367
-0.000251419
-0.00027649
-0.000322079
-0.000338822
-0.000289394
-0.000236381
-0.00021067
-0.000171007
-0.000102883
1.7466e-05
0.000152214
0.000286548
0.000445583
0.000667441
9.79868e-05
7.76853e-05
-5.07476e-06
-8.06435e-05
-0.000128187
-0.000191814
-0.000246522
-0.000275155
-0.000321577
-0.000341855
-0.000314391
-0.000318191
-0.000283326
-0.000221686
-0.000161853
-7.40747e-05
2.8583e-05
0.000126744
0.000249487
0.000448197
0.000107626
8.63754e-05
3.96557e-06
-7.37387e-05
-0.000124673
-0.00018951
-0.000245401
-0.000277492
-0.00032708
-0.00037063
-0.000389153
-0.000370416
-0.000322468
-0.000268765
-0.000231561
-0.000179263
-0.000109506
-4.1531e-05
5.04558e-05
0.000227625
0.000116228
9.75853e-05
1.55166e-05
-6.10918e-05
-0.000115977
-0.00018927
-0.000253599
-0.000290558
-0.000353842
-0.00043434
-0.000430494
-0.000397061
-0.00036297
-0.000329125
-0.00031466
-0.0002952
-0.000257405
-0.000215794
-0.00014948
8.60445e-06
0.000124858
0.000108103
3.21657e-05
-4.44466e-05
-0.000100848
-0.000189295
-0.000274111
-0.000341217
-0.000410538
-0.000459137
-0.000448742
-0.000427051
-0.000414126
-0.000403006
-0.000408541
-0.000417438
-0.000411163
-0.000395034
-0.000349539
-0.000207824
0.000137499
0.000116899
5.06473e-05
-2.55672e-05
-8.78679e-05
-0.000195213
-0.000319471
-0.000393781
-0.00044522
-0.000482703
-0.000477626
-0.00046758
-0.000474467
-0.000485777
-0.000510712
-0.000544946
-0.000569076
-0.000577973
-0.000550285
-0.000421932
0.000152681
0.000129866
6.89218e-05
-8.94859e-06
-8.83054e-05
-0.000216342
-0.000351287
-0.000427082
-0.000481071
-0.000519734
-0.000519303
-0.00051686
-0.000540239
-0.00057449
-0.000620318
-0.000678056
-0.00073052
-0.000763277
-0.000751562
-0.000633755
0.000172495
0.000149006
8.29953e-05
9.64715e-07
-9.73844e-05
-0.00024779
-0.000383093
-0.000459992
-0.000516888
-0.000559536
-0.00056682
-0.000573092
-0.000611556
-0.000668965
-0.000737452
-0.000817433
-0.000894831
-0.00094981
-0.000953017
-0.000844016
0.000196678
0.000171656
9.44409e-05
-2.02669e-06
-0.000115973
-0.000276381
-0.000413879
-0.000491816
-0.000551994
-0.000601841
-0.000620264
-0.000637272
-0.000690112
-0.000769984
-0.000862036
-0.000963049
-0.00106199
-0.00113723
-0.00115477
-0.00105376
0.000224272
0.000198085
0.000105591
-1.88915e-05
-0.000145899
-0.000300941
-0.000439395
-0.000524496
-0.000589896
-0.000648165
-0.000680416
-0.000710293
-0.000777055
-0.00087768
-0.000992762
-0.00111378
-0.00123163
-0.0013251
-0.00135642
-0.00126287
0.000254211
0.000223846
0.000114301
-3.74911e-05
-0.000179993
-0.000330862
-0.000467415
-0.00055823
-0.000630698
-0.000698632
-0.000746447
-0.000791277
-0.00087194
-0.000991357
-0.00112828
-0.00126894
-0.00140422
-0.0015138
-0.0015577
-0.0014709
0.000285426
0.000247974
0.000118933
-5.44757e-05
-0.000214325
-0.000366742
-0.000500472
-0.000595771
-0.000675331
-0.000753523
-0.000817694
-0.000879389
-0.000974444
-0.00111085
-0.00126827
-0.00142844
-0.00158004
-0.00170318
-0.00175745
-0.00167637
0.000315431
0.000269568
0.000123467
-6.99815e-05
-0.000248247
-0.000405885
-0.000539623
-0.000639277
-0.000725699
-0.000813686
-0.000893998
-0.000973818
-0.00108406
-0.00123608
-0.0014124
-0.00159141
-0.00175802
-0.00189224
-0.00195449
-0.00187816
0.000343152
0.000288513
0.000127856
-8.40515e-05
-0.000281465
-0.00044842
-0.000584913
-0.000689498
-0.000782424
-0.00087968
-0.000975431
-0.00107385
-0.00120009
-0.00136693
-0.00156031
-0.00175662
-0.00193704
-0.00208073
-0.00214916
-0.00207644
0.000368364
0.000305097
0.00013137
-9.71741e-05
-0.000314608
-0.000494017
-0.000635651
-0.00074618
-0.000846006
-0.000952137
-0.00106254
-0.00117922
-0.00132169
-0.00150252
-0.00171086
-0.00192259
-0.00211602
-0.00226846
-0.00234189
-0.00227146
0.000390757
0.000318726
0.000133285
-0.000110231
-0.000347624
-0.000542043
-0.000691331
-0.000809042
-0.00091661
-0.00103156
-0.00115556
-0.00128955
-0.00144796
-0.00164197
-0.00186316
-0.00208844
-0.00229405
-0.00245474
-0.00253231
-0.00246302
0.000410165
0.000329766
0.000132572
-0.000124411
-0.000379968
-0.000591903
-0.000751738
-0.000877734
-0.000993699
-0.00111769
-0.00125429
-0.00140451
-0.00157829
-0.0017846
-0.00201672
-0.00225354
-0.00247009
-0.00263844
-0.00271952
-0.00265062
0.000426289
0.000337634
0.00012893
-0.000140784
-0.000413645
-0.000643019
-0.000815934
-0.000951909
-0.00107667
-0.00120988
-0.00135839
-0.00152362
-0.00171188
-0.00192927
-0.00217067
-0.00241705
-0.00264314
-0.00281866
-0.002903
-0.00283414
0.000438776
0.000342398
0.000122201
-0.000160147
-0.000449023
-0.000695395
-0.000882676
-0.00103071
-0.00116502
-0.00130736
-0.00146721
-0.00164622
-0.0018478
-0.00207513
-0.00232424
-0.00257824
-0.00281227
-0.00299438
-0.00308198
-0.00301303
0.000446862
0.000343584
0.000112422
-0.000182645
-0.000486727
-0.000749393
-0.00095167
-0.00111311
-0.00125783
-0.00140904
-0.00157936
-0.00177111
-0.00198513
-0.0022216
-0.00247709
-0.00273686
-0.00297695
-0.00316461
-0.00325543
-0.0031865
0.000450972
0.000341207
9.92712e-05
-0.000208561
-0.000526951
-0.000804986
-0.00102256
-0.00119837
-0.00135428
-0.00151422
-0.00169379
-0.00189684
-0.00212235
-0.00236746
-0.00262848
-0.00289255
-0.00313695
-0.00332874
-0.00342239
-0.00335371
0.000450664
0.000334894
8.28399e-05
-0.000237823
-0.000570049
-0.000862315
-0.0010946
-0.00128518
-0.00145312
-0.00162207
-0.00181006
-0.00202251
-0.00225791
-0.00251102
-0.00277706
-0.00304441
-0.00329174
-0.00348622
-0.00358189
-0.00351358
0.000445908
0.000324536
6.31853e-05
-0.000269967
-0.000615706
-0.000921764
-0.00116803
-0.00137227
-0.00155242
-0.00173079
-0.00192693
-0.00214724
-0.00239057
-0.00265079
-0.00292156
-0.00319161
-0.00344081
-0.00363678
-0.00373347
-0.00366525
0.000436828
0.000310349
4.01609e-05
-0.000305005
-0.000663098
-0.00098236
-0.00124246
-0.00145934
-0.00165101
-0.00183879
-0.0020426
-0.0022697
-0.00251931
-0.00278534
-0.00306044
-0.00333286
-0.00358323
-0.00377986
-0.00387674
-0.00380818
0.000423439
0.000292549
1.45168e-05
-0.000342486
-0.000712134
-0.00104306
-0.0013164
-0.0015453
-0.00174774
-0.00194449
-0.0021553
-0.00238828
-0.00264303
-0.00291366
-0.00319244
-0.00346697
-0.00371806
-0.00391476
-0.00401128
-0.00394193
0.000406544
0.000271326
-1.36016e-05
-0.000380796
-0.000761687
-0.00110381
-0.00138882
-0.00162846
-0.00184091
-0.00204623
-0.00226358
-0.00250151
-0.00276041
-0.00303469
-0.00331641
-0.00359275
-0.00384425
-0.00404061
-0.00413638
-0.00406599
0.000386847
0.000248082
-4.36296e-05
-0.000419625
-0.000809651
-0.00116281
-0.00145906
-0.00170754
-0.00192877
-0.00214231
-0.00236589
-0.00260803
-0.00287011
-0.00314722
-0.00343122
-0.00370901
-0.00396075
-0.00415652
-0.00425133
-0.00417978
0.000365038
0.000223491
-7.35713e-05
-0.000457783
-0.000855259
-0.00121715
-0.00152463
-0.00178137
-0.00200979
-0.0022308
-0.00246018
-0.00270602
-0.00297042
-0.00324969
-0.00353546
-0.00381439
-0.00406629
-0.00426151
-0.00435543
-0.00428283
0.000342738
0.000198483
-0.000102242
-0.000492529
-0.000896662
-0.00126611
-0.00158293
-0.00184716
-0.00208154
-0.00230862
-0.00254314
-0.0027922
-0.00305832
-0.00333922
-0.00362635
-0.0039061
-0.00415792
-0.00435247
-0.00444556
-0.00437227
0.000322276
0.000176734
-0.000127637
-0.000522947
-0.000931685
-0.00130694
-0.00163105
-0.00190086
-0.00214003
-0.00237174
-0.00261021
-0.00286183
-0.00312899
-0.0034109
-0.00369897
-0.00397925
-0.0042309
-0.00442474
-0.00451689
-0.00444252
0.000303958
0.000155461
-0.000152548
-0.000552708
-0.000965824
-0.0013464
-0.00167828
-0.00195386
-0.00219735
-0.00243416
-0.00267685
-0.00293159
-0.00320062
-0.00348405
-0.00377366
-0.00405513
-0.00430754
-0.00450171
-0.00459411
-0.00451997
0.00366834
0.00379167
0.00360426
0.00344351
0.00334304
0.00323785
0.00306765
0.00281168
0.00248464
0.00211897
0.00174932
0.00139544
0.0010547
0.000712504
0.000360005
-5.77868e-06
-0.000391741
-0.00080696
-0.00126473
-0.00177579
-0.0023452
-0.00298111
-0.00368563
-0.0044448
-0.005219
-0.0059419
-0.00653242
-0.00691153
-0.00703844
-0.00693165
-0.00666519
-0.00632712
-0.00598576
-0.00568131
-0.00543067
-0.00524197
-0.00511542
-0.00504444
-0.00501575
-0.0050177
-0.00504454
-0.00509113
-0.00515001
-0.00521312
-0.00528046
-0.00535033
-0.00542312
-0.00549699
-0.00557127
-0.00564342
-0.00571554
-0.0057886
-0.00586069
-0.00593394
-0.00600664
-0.00607993
-0.00615303
-0.00622719
-0.0063004
-0.00637306
-0.00644631
-0.0065188
-0.0065926
-0.00666321
-0.00673628
-0.00681017
-0.00688542
-0.00696198
-0.00703763
-0.00711535
-0.00718964
-0.0072669
-0.00734305
-0.00742011
-0.00750128
-0.00757963
-0.00766419
-0.00774373
-0.00782615
-0.00790818
-0.00798864
-0.0080748
-0.00815674
-0.00824448
-0.00832994
-0.00841396
-0.00850135
-0.00858547
-0.00867138
-0.00875784
-0.00884423
-0.00892887
-0.00901262
-0.00909742
-0.00917931
-0.00925831
-0.00933218
-0.00940825
-0.00946559
-0.00951689
0.00305414
0.00340744
0.00349577
0.00342927
0.00332697
0.00320525
0.00303037
0.00277847
0.00245656
0.00209371
0.00172489
0.0013714
0.0010314
0.000690002
0.000338114
-2.67669e-05
-0.000411501
-0.000825091
-0.00128058
-0.00178864
-0.00235375
-0.00298361
-0.00368029
-0.00442846
-0.00519017
-0.00590179
-0.00648704
-0.00687079
-0.00700692
-0.00690884
-0.0066487
-0.00631465
-0.00597527
-0.00567269
-0.00542356
-0.00523592
-0.00511005
-0.00503958
-0.00501125
-0.00501348
-0.00504055
-0.00508735
-0.00514644
-0.00520974
-0.00527729
-0.00534734
-0.00542032
-0.00549437
-0.00556883
-0.00564115
-0.00571343
-0.00578665
-0.00585887
-0.00593225
-0.00600505
-0.00607845
-0.00615163
-0.0062259
-0.00629918
-0.0063719
-0.00644522
-0.00651776
-0.00659164
-0.00666228
-0.0067354
-0.00680933
-0.00688461
-0.00696121
-0.00703687
-0.00711464
-0.00718894
-0.00726624
-0.00734241
-0.00741948
-0.00750069
-0.00757904
-0.00766363
-0.00774318
-0.00782562
-0.00790768
-0.00798814
-0.00807434
-0.00815627
-0.00824405
-0.00832952
-0.00841355
-0.00850096
-0.00858509
-0.00867102
-0.0087575
-0.0088439
-0.00892856
-0.00901232
-0.00909714
-0.00917903
-0.00925806
-0.00933192
-0.00940804
-0.00946537
-0.00951668
0.00272044
0.00317196
0.00343376
0.00346479
0.003366
0.00321408
0.00301608
0.00275601
0.0024334
0.0020703
0.00169979
0.00134432
0.00100308
0.000661058
0.000308618
-5.62916e-05
-0.000440006
-0.000851955
-0.00130463
-0.00180833
-0.00236672
-0.00298623
-0.00366837
-0.00439472
-0.00512868
-0.00581255
-0.00637844
-0.0067582
-0.00690882
-0.00683744
-0.00660328
-0.0062876
-0.00595932
-0.00566318
-0.00541948
-0.00523601
-0.00511235
-0.00504248
-0.00501399
-0.00501579
-0.0050423
-0.00508847
-0.00514697
-0.00520977
-0.00527695
-0.00534671
-0.00541941
-0.00549322
-0.00556752
-0.00563972
-0.00571193
-0.00578512
-0.0058573
-0.00593069
-0.00600351
-0.00607693
-0.00615014
-0.00622444
-0.00629776
-0.00637052
-0.00644389
-0.00651647
-0.00659042
-0.00666113
-0.00673434
-0.00680835
-0.00688369
-0.00696035
-0.00703603
-0.00711385
-0.00718816
-0.00726552
-0.00734174
-0.00741886
-0.00750014
-0.00757849
-0.00766312
-0.00774266
-0.00782512
-0.00790722
-0.00798769
-0.00807395
-0.00815587
-0.00824367
-0.00832915
-0.00841319
-0.00850063
-0.00858477
-0.00867071
-0.00875721
-0.00884361
-0.00892829
-0.00901206
-0.0090969
-0.0091788
-0.00925786
-0.00933172
-0.0094079
-0.00946539
-0.00951668
0.00242739
0.00293319
0.00330135
0.00342442
0.00336046
0.00320158
0.00298607
0.00271597
0.00239163
0.00202951
0.00165952
0.00130418
0.000963117
0.000621452
0.000269066
-9.53742e-05
-0.000477456
-0.000886938
-0.00133552
-0.00183312
-0.00238244
-0.00298768
-0.00364971
-0.0043501
-0.00505248
-0.00570529
-0.00624884
-0.00662349
-0.00679
-0.00674894
-0.00654582
-0.00625331
-0.00593947
-0.00565186
-0.00541376
-0.00523406
-0.00511234
-0.00504295
-0.00501424
-0.00501563
-0.00504163
-0.00508714
-0.00514501
-0.00520735
-0.00527426
-0.00534385
-0.0054164
-0.00549005
-0.00556426
-0.00563647
-0.00570874
-0.00578202
-0.0058543
-0.00592781
-0.00600076
-0.00607432
-0.00614764
-0.00622205
-0.00629549
-0.00636836
-0.00644182
-0.00651447
-0.00658852
-0.00665937
-0.00673274
-0.00680689
-0.00688236
-0.0069591
-0.00703483
-0.00711268
-0.00718701
-0.00726442
-0.00734071
-0.00741794
-0.00749931
-0.00757771
-0.00766235
-0.00774186
-0.00782432
-0.00790647
-0.00798699
-0.00807332
-0.00815525
-0.00824306
-0.00832853
-0.00841258
-0.00850005
-0.00858421
-0.00867017
-0.00875668
-0.0088431
-0.00892781
-0.00901158
-0.00909645
-0.00917837
-0.00925746
-0.00933138
-0.0094076
-0.00946548
-0.00951676
0.00216727
0.00270436
0.00314612
0.00335068
0.00333858
0.00319055
0.00296698
0.00268697
0.00235679
0.00199158
0.00161975
0.00126393
0.000923056
0.000581687
0.000229411
-0.000134382
-0.000514837
-0.000921692
-0.00136546
-0.00185574
-0.00239463
-0.00298347
-0.00362233
-0.00429423
-0.00496492
-0.00558755
-0.0061096
-0.00647908
-0.00666021
-0.00664871
-0.00647858
-0.00621266
-0.00591619
-0.00563876
-0.0054064
-0.00523016
-0.00511043
-0.00504189
-0.0050134
-0.00501478
-0.0050405
-0.00508549
-0.00514276
-0.00520469
-0.00527135
-0.00534076
-0.00541314
-0.00548656
-0.00556059
-0.00563277
-0.00570507
-0.00577839
-0.00585075
-0.00592433
-0.0059974
-0.00607108
-0.00614449
-0.00621899
-0.00629253
-0.00636551
-0.00643904
-0.00651175
-0.00658591
-0.00665696
-0.00673053
-0.00680488
-0.00688051
-0.00695736
-0.00703314
-0.00711102
-0.00718538
-0.00726284
-0.00733925
-0.00741663
-0.00749814
-0.00757662
-0.00766124
-0.00774073
-0.00782318
-0.00790538
-0.00798599
-0.00807242
-0.00815437
-0.00824219
-0.00832763
-0.00841169
-0.00849918
-0.00858341
-0.00866937
-0.0087559
-0.00884232
-0.00892707
-0.00901086
-0.00909574
-0.00917768
-0.00925681
-0.00933086
-0.00940709
-0.00946562
-0.00951688
0.00193835
0.00249025
0.00298183
0.00325639
0.00330107
0.00317819
0.00295654
0.00266824
0.00232839
0.00195532
0.00157824
0.00122035
0.00087958
0.000538888
0.000187265
-0.000175298
-0.00055347
-0.000957117
-0.00139522
-0.00187661
-0.00240358
-0.00297491
-0.00358955
-0.00423286
-0.00487311
-0.00546703
-0.00596845
-0.00633233
-0.00652618
-0.00654237
-0.00640524
-0.00616769
-0.00589088
-0.00562504
-0.00539884
-0.00522597
-0.00510809
-0.00504037
-0.00501224
-0.00501377
-0.00503933
-0.00508382
-0.00514049
-0.005202
-0.00526836
-0.00533754
-0.00540964
-0.00548277
-0.00555659
-0.00562871
-0.00570098
-0.00577434
-0.00584673
-0.00592038
-0.00599356
-0.00606735
-0.00614085
-0.00621545
-0.00628909
-0.00636218
-0.00643579
-0.00650855
-0.00658282
-0.00665409
-0.0067279
-0.00680248
-0.00687828
-0.00695527
-0.00703109
-0.007109
-0.00718336
-0.00726088
-0.00733743
-0.007415
-0.00749668
-0.00757526
-0.00765985
-0.0077393
-0.0078217
-0.00790398
-0.00798471
-0.00807127
-0.00815324
-0.00824105
-0.00832645
-0.00841052
-0.00849803
-0.00858234
-0.00866831
-0.00875484
-0.00884124
-0.00892606
-0.00900986
-0.00909473
-0.00917672
-0.00925589
-0.00933012
-0.00940633
-0.00946571
-0.00951697
0.00172073
0.00227751
0.00280779
0.00314236
0.00324402
0.00315516
0.00294363
0.00265218
0.00230323
0.00191996
0.00153461
0.00117258
0.000831475
0.00049211
0.000141919
-0.000218798
-0.000593723
-0.000993288
-0.00142526
-0.00189657
-0.00241019
-0.00296361
-0.00355387
-0.00416849
-0.00477901
-0.00534547
-0.00582704
-0.00618457
-0.00638873
-0.00643016
-0.00632538
-0.00611765
-0.0058627
-0.00561009
-0.00539081
-0.00522139
-0.00510522
-0.00503821
-0.00501043
-0.0050122
-0.00503766
-0.00508172
-0.00513785
-0.00519893
-0.005265
-0.00533392
-0.00540571
-0.00547855
-0.00555216
-0.0056242
-0.00569645
-0.00576983
-0.00584228
-0.00591599
-0.0059893
-0.00606321
-0.00613682
-0.00621153
-0.00628529
-0.00635851
-0.00643218
-0.00650501
-0.0065794
-0.00665092
-0.00672497
-0.00679982
-0.00687582
-0.00695296
-0.0070288
-0.00710673
-0.00718109
-0.00725867
-0.00733538
-0.00741317
-0.00749503
-0.00757373
-0.00765825
-0.00773766
-0.00782
-0.00790238
-0.00798322
-0.00806994
-0.00815194
-0.00823972
-0.00832506
-0.00840914
-0.00849665
-0.00858108
-0.00866703
-0.00875356
-0.00883994
-0.00892483
-0.00900864
-0.0090935
-0.00917554
-0.00925474
-0.00932921
-0.0094054
-0.00946571
-0.00951701
0.00150074
0.002061
0.00262403
0.00301077
0.00316765
0.00311871
0.00292406
0.00263524
0.00228051
0.00188689
0.00149103
0.00112209
0.000779219
0.000441321
9.3258e-05
-0.000265239
-0.000636198
-0.00103045
-0.00145564
-0.00191596
-0.00241465
-0.0029495
-0.00351544
-0.00410133
-0.0046827
-0.00522287
-0.00568519
-0.00603549
-0.00624774
-0.00631191
-0.00623834
-0.00606135
-0.00583015
-0.0055927
-0.00538165
-0.00521619
-0.00510169
-0.00503519
-0.00500765
-0.00500966
-0.00503513
-0.00507888
-0.00513456
-0.00519529
-0.00526113
-0.00532984
-0.00540136
-0.00547389
-0.00554731
-0.00561927
-0.00569147
-0.00576488
-0.00583739
-0.0059112
-0.00598466
-0.00605873
-0.00613245
-0.00620731
-0.0062812
-0.00635454
-0.00642829
-0.00650119
-0.0065757
-0.00664749
-0.0067218
-0.00679695
-0.00687316
-0.00695045
-0.00702632
-0.00710426
-0.00717863
-0.00725627
-0.00733315
-0.00741118
-0.00749325
-0.00757207
-0.0076565
-0.00773586
-0.00781813
-0.00790063
-0.00798158
-0.00806848
-0.00815051
-0.00823825
-0.00832352
-0.00840761
-0.00849512
-0.00857967
-0.0086656
-0.00875213
-0.00883849
-0.00892344
-0.00900727
-0.00909209
-0.00917421
-0.00925343
-0.00932817
-0.00940439
-0.00946562
-0.00951704
0.00127732
0.00184202
0.00243317
0.00286621
0.00307562
0.00306913
0.0028968
0.00261462
0.00225801
0.0018561
0.00144864
0.00106983
0.00072281
0.000385817
4.06786e-05
-0.000314786
-0.000681015
-0.00106832
-0.00148535
-0.00193397
-0.00241652
-0.00293189
-0.00347375
-0.00403138
-0.00458419
-0.00509911
-0.00554271
-0.00588505
-0.00610341
-0.00618778
-0.00614377
-0.00599798
-0.00579238
-0.00557216
-0.00537095
-0.00521024
-0.00509753
-0.00503137
-0.00500387
-0.0050061
-0.00503172
-0.0050753
-0.00513065
-0.00519113
-0.00525678
-0.00532535
-0.00539663
-0.00546882
-0.005542
-0.00561393
-0.0056861
-0.00575954
-0.00583214
-0.00590606
-0.00597969
-0.00605394
-0.00612779
-0.00620278
-0.00627681
-0.00635028
-0.00642412
-0.00649709
-0.00657173
-0.00664382
-0.00671841
-0.00679386
-0.00687032
-0.00694777
-0.00702366
-0.0071016
-0.00717596
-0.00725367
-0.00733075
-0.00740905
-0.00749133
-0.00757027
-0.00765461
-0.00773391
-0.0078161
-0.00789874
-0.00797984
-0.0080669
-0.00814896
-0.00823665
-0.00832185
-0.00840594
-0.00849347
-0.00857813
-0.00866406
-0.00875057
-0.00883692
-0.00892193
-0.0090058
-0.00909056
-0.00917278
-0.00925201
-0.00932705
-0.00940332
-0.00946543
-0.00951705
0.00105188
0.00162324
0.00223987
0.00271358
0.00297119
0.00300731
0.00286029
0.00258763
0.00223275
0.0018262
0.00140782
0.0010173
0.000663845
0.000326726
-1.50716e-05
-0.000366447
-0.000727344
-0.00110655
-0.00151373
-0.00195012
-0.00241605
-0.00291092
-0.00342876
-0.00395893
-0.0044839
-0.00497436
-0.0053997
-0.00573357
-0.00595627
-0.00605831
-0.00604196
-0.00592719
-0.00574869
-0.00554779
-0.00535828
-0.00520342
-0.00509291
-0.00502705
-0.0049994
-0.00500169
-0.0050274
-0.00507088
-0.00512597
-0.00518628
-0.00525183
-0.00532033
-0.00539146
-0.00546336
-0.0055363
-0.00560822
-0.0056804
-0.00575385
-0.00582654
-0.00590056
-0.00597438
-0.00604882
-0.0061228
-0.00619793
-0.0062721
-0.00634573
-0.00641966
-0.0064927
-0.00656748
-0.00663987
-0.00671478
-0.00679055
-0.00686726
-0.00694488
-0.00702079
-0.00709874
-0.0071731
-0.00725087
-0.00732817
-0.00740675
-0.00748927
-0.00756834
-0.00765257
-0.00773182
-0.00781391
-0.0078967
-0.00797797
-0.00806519
-0.0081473
-0.00823492
-0.00832007
-0.00840414
-0.00849169
-0.00857647
-0.00866241
-0.00874888
-0.00883524
-0.00892029
-0.00900423
-0.0090889
-0.00917124
-0.00925048
-0.00932585
-0.0094022
-0.00946513
-0.00951706
0.000825981
0.00140583
0.00204585
0.00255492
0.00285536
0.00293291
0.0028134
0.00255286
0.00220238
0.0017954
0.00136893
0.000966042
0.000604207
0.000265414
-7.3589e-05
-0.000420178
-0.000775138
-0.00114558
-0.00154127
-0.00196441
-0.00241345
-0.00288706
-0.00338059
-0.00388411
-0.0043822
-0.004849
-0.00525652
-0.00558151
-0.00580701
-0.00592434
-0.00593352
-0.00584897
-0.00569858
-0.00551901
-0.00534313
-0.00519557
-0.00508789
-0.00502233
-0.00499424
-0.00499627
-0.0050219
-0.00506532
-0.00512032
-0.00518065
-0.00524628
-0.00531484
-0.00538588
-0.00545756
-0.00553023
-0.00560208
-0.00567427
-0.00574775
-0.00582051
-0.00589466
-0.00596868
-0.00604335
-0.00611749
-0.00619277
-0.00626707
-0.00634086
-0.00641487
-0.00648798
-0.0065629
-0.00663563
-0.00671087
-0.006787
-0.00686396
-0.00694177
-0.00701772
-0.00709564
-0.00717002
-0.00724786
-0.0073254
-0.00740429
-0.00748705
-0.00756627
-0.00765037
-0.00772955
-0.00781157
-0.0078945
-0.00797597
-0.00806337
-0.00814551
-0.00823304
-0.00831817
-0.00840222
-0.00848978
-0.00857469
-0.00866066
-0.00874705
-0.00883345
-0.00891853
-0.00900256
-0.00908712
-0.0091696
-0.00924886
-0.00932456
-0.00940104
-0.00946472
-0.00951704
0.000600536
0.00118971
0.00185169
0.00239176
0.00272943
0.00284588
0.00275571
0.00250993
0.00216577
0.00176168
0.00133105
0.000916811
0.000544797
0.000202462
-0.000134753
-0.000476323
-0.000824418
-0.00118537
-0.00156832
-0.00197683
-0.0024085
-0.0028607
-0.0033298
-0.00380716
-0.00427935
-0.00472341
-0.00511364
-0.00542935
-0.00565628
-0.00578666
-0.00581914
-0.00576351
-0.0056417
-0.00548518
-0.0053247
-0.00518595
-0.00508204
-0.00501702
-0.00498838
-0.00498997
-0.00501537
-0.00505875
-0.00511382
-0.00517431
-0.00524009
-0.00530871
-0.00537969
-0.0054512
-0.00552368
-0.00559544
-0.00566763
-0.00574123
-0.0058141
-0.00588838
-0.00596261
-0.00603748
-0.00611179
-0.00618721
-0.00626164
-0.00633558
-0.00640971
-0.0064829
-0.00655797
-0.00663108
-0.00670668
-0.0067832
-0.00686044
-0.00693842
-0.00701441
-0.00709231
-0.00716671
-0.00724462
-0.00732242
-0.00740164
-0.00748466
-0.00756404
-0.00764801
-0.00772712
-0.00780905
-0.00789213
-0.00797382
-0.00806141
-0.00814362
-0.00823102
-0.00831612
-0.00840015
-0.00848773
-0.00857277
-0.00865878
-0.00874509
-0.00883153
-0.00891664
-0.00900078
-0.00908522
-0.00916784
-0.00924715
-0.00932318
-0.00939983
-0.00946418
-0.00951697
0.000376785
0.000975144
0.0016579
0.00222582
0.00259552
0.00274708
0.00268706
0.00245865
0.00212243
0.00172286
0.00129182
0.000868931
0.000485932
0.000138461
-0.000197679
-0.000534438
-0.00087495
-0.00122556
-0.00159505
-0.0019877
-0.00240111
-0.00283203
-0.00327712
-0.00372852
-0.0041753
-0.00459761
-0.00497133
-0.00527753
-0.00550454
-0.00564607
-0.00569957
-0.00567109
-0.00557759
-0.00544528
-0.00530197
-0.00517369
-0.00507492
-0.00501122
-0.0049822
-0.00498312
-0.00500801
-0.00505105
-0.00510611
-0.00516683
-0.00523285
-0.00530171
-0.00537279
-0.00544428
-0.0055167
-0.00558843
-0.00566057
-0.00573426
-0.00580727
-0.00588162
-0.00595603
-0.00603113
-0.00610563
-0.00618124
-0.00625584
-0.00632993
-0.00640418
-0.00647747
-0.00655269
-0.00662618
-0.00670218
-0.00677911
-0.00685666
-0.00693482
-0.00701085
-0.00708872
-0.00716315
-0.00724114
-0.00731923
-0.00739879
-0.00748211
-0.00756164
-0.00764548
-0.00772451
-0.00780633
-0.00788958
-0.00797152
-0.00805928
-0.00814161
-0.00822884
-0.00831392
-0.00839793
-0.00848556
-0.00857071
-0.00865678
-0.00874299
-0.00882947
-0.00891462
-0.00899888
-0.00908321
-0.00916596
-0.00924534
-0.00932168
-0.00939855
-0.00946351
-0.00951682
0.000155282
0.000761958
0.00146414
0.00205772
0.00245543
0.00263745
0.00260664
0.00239775
0.00207105
0.001677
0.00124874
0.000821274
0.000428245
7.45002e-05
-0.000261045
-0.000593336
-0.000926192
-0.00126585
-0.00162137
-0.00199725
-0.00239145
-0.00280117
-0.00322295
-0.00364877
-0.0040702
-0.00447148
-0.00482988
-0.00512668
-0.00535245
-0.00550328
-0.00557564
-0.00557221
-0.005506
-0.00539857
-0.00527435
-0.00515838
-0.00506624
-0.00500488
-0.0049756
-0.00497554
-0.00499956
-0.00504202
-0.00509698
-0.00515816
-0.0052247
-0.00529397
-0.00536527
-0.00543676
-0.00550913
-0.00558087
-0.00565293
-0.00572664
-0.00579989
-0.00587438
-0.00594899
-0.00602438
-0.00609911
-0.00617489
-0.00624964
-0.00632387
-0.00639821
-0.0064716
-0.00654701
-0.00662092
-0.00669735
-0.00677473
-0.00685263
-0.00693098
-0.00700704
-0.00708484
-0.00715933
-0.00723738
-0.0073158
-0.00739575
-0.00747938
-0.00755909
-0.00764277
-0.00772171
-0.00780343
-0.00788685
-0.00796906
-0.008057
-0.00813946
-0.00822652
-0.00831157
-0.00839555
-0.00848323
-0.00856851
-0.00865464
-0.00874075
-0.00882728
-0.00891247
-0.00899684
-0.00908108
-0.00916394
-0.00924343
-0.00932006
-0.00939719
-0.00946271
-0.00951657
-6.37544e-05
0.000549877
0.00126961
0.00188687
0.00230981
0.00251771
0.00251378
0.00232609
0.00201102
0.00162382
0.00120074
0.000772896
0.000372302
1.16285e-05
-0.000324213
-0.000652238
-0.000977727
-0.00130633
-0.00164733
-0.00200568
-0.0023801
-0.00276836
-0.00316722
-0.00356837
-0.00396476
-0.00434527
-0.00468943
-0.00497747
-0.00520097
-0.0053589
-0.00544801
-0.00546769
-0.00542727
-0.00534485
-0.00524129
-0.00513932
-0.00505503
-0.00499706
-0.00496815
-0.00496729
-0.00499043
-0.00503215
-0.00508681
-0.00514837
-0.00521549
-0.00528519
-0.00535674
-0.00542832
-0.00550075
-0.00557266
-0.00564481
-0.00571854
-0.00579202
-0.00586677
-0.00594154
-0.00601715
-0.00609209
-0.00616803
-0.00624294
-0.00631734
-0.00639178
-0.00646529
-0.00654092
-0.0066153
-0.00669219
-0.00677005
-0.00684832
-0.00692687
-0.00700295
-0.00708066
-0.00715522
-0.00723336
-0.00731214
-0.00739249
-0.00747646
-0.00755635
-0.00763983
-0.00771869
-0.00780031
-0.0078839
-0.00796644
-0.00805454
-0.00813716
-0.00822402
-0.00830906
-0.00839299
-0.00848072
-0.00856617
-0.00865235
-0.00873834
-0.00882494
-0.00891017
-0.00899467
-0.00907883
-0.00916178
-0.00924142
-0.00931832
-0.00939575
-0.00946178
-0.00951622
-0.000279747
0.00033924
0.00107411
0.00171269
0.00215882
0.00238951
0.00240982
0.00224426
0.0019431
0.00156395
0.00114724
0.00072208
0.000317251
-4.99931e-05
-0.000387055
-0.0007107
-0.00102879
-0.00134664
-0.00167282
-0.00201309
-0.00236754
-0.00273407
-0.00311
-0.00348781
-0.0038603
-0.00421985
-0.00455004
-0.0048303
-0.00505097
-0.00521359
-0.00531721
-0.00535839
-0.00534202
-0.00528381
-0.00520163
-0.00511532
-0.0050405
-0.00498731
-0.00495997
-0.00495884
-0.00498094
-0.00502146
-0.0050754
-0.00513704
-0.00520474
-0.00527511
-0.00534714
-0.00541904
-0.00549169
-0.00556391
-0.00563626
-0.00570998
-0.00578354
-0.00585852
-0.00593356
-0.00600936
-0.00608455
-0.00616069
-0.0062358
-0.00631038
-0.00638495
-0.00645854
-0.00653439
-0.00660929
-0.00668666
-0.00676504
-0.00684373
-0.00692247
-0.00699859
-0.00707616
-0.00715078
-0.00722903
-0.00730822
-0.00738902
-0.00747333
-0.00755341
-0.00763669
-0.00771545
-0.00779697
-0.00788077
-0.00796364
-0.00805191
-0.0081347
-0.00822133
-0.0083064
-0.00839027
-0.00847802
-0.00856367
-0.00864991
-0.00873578
-0.00882242
-0.00890775
-0.00899234
-0.00907643
-0.00915948
-0.00923929
-0.00931646
-0.00939418
-0.00946072
-0.00951574
-0.00049321
0.000129873
0.000877398
0.00153483
0.00200254
0.00225471
0.00229701
0.00215305
0.00186735
0.00149706
0.00108724
0.000667078
0.000261867
-0.000109965
-0.000448656
-0.000767954
-0.00107829
-0.00138566
-0.00169743
-0.00201956
-0.00235388
-0.00269867
-0.00305174
-0.00340733
-0.00375767
-0.00409617
-0.00441157
-0.00468479
-0.00490305