/*--------------------------------*- C++ -*----------------------------------*\
| =========                 |                                                 |
| \\      /  F ield         | OpenFOAM: The Open Source CFD Toolbox           |
|  \\    /   O peration     | Version:  v2106                                 |
|   \\  /    A nd           | Website:  www.openfoam.com                      |
|    \\/     M anipulation  |                                                 |
\*---------------------------------------------------------------------------*/
FoamFile
{
    version     2.0;
    format      ascii;
    arch        "LSB;label=32;scalar=64";
    class       surfaceScalarField;
    location    "1.7";
    object      phi;
}
// * * * * * * * * * * * * * * * * * * * * * * * * * * * * * * * * * * * * * //

dimensions      [0 3 -1 0 0 0 0];

oriented        oriented;

internalField   nonuniform List<scalar> 
9440
(
3.88177e-06
-1.79049e-09
3.87857e-06
5.43018e-09
3.88143e-06
1.26197e-08
3.87768e-06
-3.0932e-08
3.87932e-06
-4.02722e-09
3.87739e-06
-2.64518e-08
3.87953e-06
7.43898e-09
3.87993e-06
-1.21679e-08
3.88169e-06
4.95651e-09
3.88116e-06
-2.44188e-08
3.88262e-06
-1.84687e-09
3.88185e-06
-2.49902e-08
3.88318e-06
-2.57506e-09
3.88236e-06
-2.2359e-08
3.8833e-06
-3.01948e-09
3.88298e-06
-1.93523e-08
3.88236e-06
-8.01698e-10
3.87661e-06
-1.23352e-08
3.86328e-06
1.53018e-08
2.86566e-08
3.84102e-06
4.18354e-06
5.27406e-10
4.18771e-06
1.26004e-09
4.18536e-06
1.49695e-08
4.18692e-06
-3.24871e-08
4.18471e-06
-1.81878e-09
4.18594e-06
-2.76868e-08
4.18582e-06
7.56069e-09
4.18675e-06
-1.31e-08
4.1876e-06
4.10756e-09
4.18605e-06
-2.28639e-08
4.18783e-06
-3.62407e-09
4.18585e-06
-2.30162e-08
4.18825e-06
-4.96996e-09
4.1865e-06
-2.06104e-08
4.18884e-06
-5.36243e-09
4.18417e-06
-1.46771e-08
4.18267e-06
6.95626e-10
4.1699e-06
4.28983e-10
4.16469e-06
2.05197e-08
3.44166e-08
4.15893e-06
4.51789e-06
2.70166e-09
4.52097e-06
-1.82013e-09
4.5204e-06
1.55363e-08
4.52028e-06
-3.23613e-08
4.52049e-06
-2.03507e-09
4.51908e-06
-2.62728e-08
4.52198e-06
4.65843e-09
4.51972e-06
-1.08426e-08
4.52384e-06
-1.34824e-11
4.51936e-06
-1.83752e-08
4.52415e-06
-8.4219e-09
4.51933e-06
-1.81951e-08
4.52506e-06
-1.06955e-08
4.52154e-06
-1.70956e-08
4.52542e-06
-9.24287e-09
4.52045e-06
-9.7004e-09
4.52181e-06
-6.6439e-10
4.51347e-06
8.76325e-09
4.50974e-06
2.42561e-08
4.66187e-08
4.49753e-06
4.88055e-06
3.09533e-09
4.88128e-06
-2.54679e-09
4.88355e-06
1.32671e-08
4.88111e-06
-2.99166e-08
4.88384e-06
-4.76523e-09
4.88021e-06
-2.26427e-08
4.88498e-06
-1.15005e-10
4.88143e-06
-7.29593e-09
4.88621e-06
-4.79484e-09
4.8826e-06
-1.47597e-08
4.88695e-06
-1.27761e-08
4.88595e-06
-1.71937e-08
4.88821e-06
-1.29504e-08
4.88657e-06
-1.54563e-08
4.88807e-06
-1.07494e-08
4.88563e-06
-7.25642e-09
4.88409e-06
8.7074e-10
4.87679e-06
1.60665e-08
4.8657e-06
3.53463e-08
5.30831e-08
4.85924e-06
5.27092e-06
2.8219e-09
5.27052e-06
-2.14715e-09
5.27449e-06
9.30186e-09
5.2708e-06
-2.62265e-08
5.27476e-06
-8.72734e-09
5.27042e-06
-1.83035e-08
5.27548e-06
-5.18093e-09
5.27268e-06
-4.49298e-09
5.27709e-06
-9.20137e-09
5.27672e-06
-1.43953e-08
5.27867e-06
-1.47235e-08
5.2782e-06
-1.67226e-08
5.27981e-06
-1.4563e-08
5.2789e-06
-1.45429e-08
5.27942e-06
-1.12744e-08
5.27601e-06
-3.8473e-09
5.26854e-06
8.34755e-09
5.25592e-06
2.86884e-08
5.24921e-06
4.20502e-08
5.4259e-08
5.24804e-06
5.69196e-06
2.32502e-09
5.6907e-06
-8.95509e-10
5.69596e-06
4.04888e-09
5.69178e-06
-2.20503e-08
5.69594e-06
-1.28875e-08
5.69235e-06
-1.47123e-08
5.69658e-06
-9.40751e-09
5.69739e-06
-5.30597e-09
5.6992e-06
-1.10082e-08
5.69993e-06
-1.51328e-08
5.70098e-06
-1.57719e-08
5.70144e-06
-1.71804e-08
5.70196e-06
-1.50806e-08
5.70159e-06
-1.41782e-08
5.69916e-06
-8.8445e-09
5.68997e-06
5.3448e-09
5.67718e-06
2.1142e-08
5.67141e-06
3.44591e-08
5.66828e-06
4.51759e-08
5.50164e-08
5.66752e-06
6.14648e-06
1.71188e-09
6.14479e-06
7.99393e-10
6.15046e-06
-1.62518e-09
6.14739e-06
-1.89741e-08
6.15027e-06
-1.57722e-08
6.14947e-06
-1.3915e-08
6.15119e-06
-1.11284e-08
6.15365e-06
-7.75697e-09
6.15528e-06
-1.26451e-08
6.1565e-06
-1.63543e-08
6.15699e-06
-1.62627e-08
6.15786e-06
-1.8048e-08
6.15721e-06
-1.44304e-08
6.15441e-06
-1.13748e-08
6.14431e-06
1.2542e-09
6.13216e-06
1.74928e-08
6.12636e-06
2.69419e-08
6.12348e-06
3.73402e-08
6.12167e-06
4.69853e-08
5.55338e-08
6.12115e-06
6.63725e-06
1.01967e-09
6.63556e-06
2.48921e-09
6.64047e-06
-6.53257e-09
6.64003e-06
-1.85322e-08
6.64038e-06
-1.61196e-08
6.64169e-06
-1.52301e-08
6.64429e-06
-1.37311e-08
6.64641e-06
-9.87665e-09
6.64785e-06
-1.4078e-08
6.64909e-06
-1.76012e-08
6.64948e-06
-1.66517e-08
6.64914e-06
-1.77072e-08
6.6462e-06
-1.14892e-08
6.63547e-06
-6.47382e-10
6.62371e-06
1.30193e-08
6.61829e-06
2.29071e-08
6.61465e-06
3.0591e-08
6.61294e-06
3.90487e-08
6.61164e-06
4.82808e-08
5.63165e-08
6.61086e-06
7.16714e-06
3.09431e-10
7.16582e-06
3.80614e-09
7.16737e-06
-8.0815e-09
7.17068e-06
-2.18365e-08
7.17132e-06
-1.67669e-08
7.17307e-06
-1.69774e-08
7.17615e-06
-1.68147e-08
7.17845e-06
-1.21742e-08
7.17961e-06
-1.52306e-08
7.18056e-06
-1.85596e-08
7.18079e-06
-1.68809e-08
7.1779e-06
-1.48098e-08
7.16764e-06
-1.23838e-09
7.15468e-06
1.23143e-08
7.14904e-06
1.8665e-08
7.14587e-06
2.60708e-08
7.14341e-06
3.30528e-08
7.14152e-06
4.09358e-08
7.1403e-06
4.95097e-08
5.67711e-08
7.13984e-06
7.73938e-06
-4.67461e-10
7.73789e-06
5.29377e-09
7.73926e-06
-9.44735e-09
7.74138e-06
-2.39624e-08
7.74557e-06
-2.09475e-08
7.74746e-06
-1.88733e-08
7.75028e-06
-1.96315e-08
7.75247e-06
-1.43672e-08
7.75363e-06
-1.63918e-08
7.75338e-06
-1.83121e-08
7.74976e-06
-1.32603e-08
7.73748e-06
-2.5286e-09
7.72643e-06
9.81425e-09
7.72197e-06
1.67737e-08
7.7191e-06
2.1538e-08
7.71696e-06
2.82047e-08
7.71429e-06
3.57309e-08
7.71233e-06
4.28938e-08
7.71134e-06
5.04992e-08
5.69575e-08
7.71115e-06
8.35723e-06
-1.24182e-09
8.3556e-06
6.92627e-09
8.35698e-06
-1.08293e-08
8.35777e-06
-2.47505e-08
8.36365e-06
-2.68248e-08
8.36784e-06
-2.30606e-08
8.37036e-06
-2.21502e-08
8.37204e-06
-1.60533e-08
8.37137e-06
-1.57197e-08
8.36689e-06
-1.38355e-08
8.35484e-06
-1.21108e-09
8.34471e-06
7.60362e-09
8.34063e-06
1.38952e-08
8.33815e-06
1.92523e-08
8.33561e-06
2.40836e-08
8.33317e-06
3.06463e-08
8.33085e-06
3.80493e-08
8.32898e-06
4.47612e-08
8.32808e-06
5.14011e-08
5.68011e-08
8.32823e-06
9.02441e-06
-2.00661e-09
9.0232e-06
8.13442e-09
9.02429e-06
-1.19196e-08
9.02566e-06
-2.61194e-08
9.03086e-06
-3.20171e-08
9.03649e-06
-2.87001e-08
9.03945e-06
-2.51061e-08
9.0396e-06
-1.61982e-08
9.03361e-06
-9.73878e-09
9.02206e-06
-2.28356e-09
9.01281e-06
8.03896e-09
9.00851e-06
1.19094e-08
9.00649e-06
1.59127e-08
9.00399e-06
2.17513e-08
9.00114e-06
2.69368e-08
8.99881e-06
3.29758e-08
8.99672e-06
4.01358e-08
8.99507e-06
4.64151e-08
8.99448e-06
5.19847e-08
5.67223e-08
8.99456e-06
9.74476e-06
-2.66531e-09
9.74547e-06
7.42721e-09
9.74552e-06
-1.19693e-08
9.74796e-06
-2.85605e-08
9.75146e-06
-3.55184e-08
9.75794e-06
-3.51842e-08
9.75968e-06
-2.68396e-08
9.75358e-06
-1.00991e-08
9.7422e-06
1.63579e-09
9.7334e-06
6.52066e-09
9.73003e-06
1.1406e-08
9.72791e-06
1.40355e-08
9.72539e-06
1.84255e-08
9.72295e-06
2.41945e-08
9.72012e-06
2.97717e-08
9.71774e-06
3.53532e-08
9.7159e-06
4.19773e-08
9.7147e-06
4.76146e-08
9.7141e-06
5.25786e-08
5.662e-08
9.71421e-06
1.05227e-05
-3.23609e-09
1.05272e-05
2.86412e-09
1.05259e-05
-1.06293e-08
1.05297e-05
-3.23769e-08
1.05287e-05
-3.45421e-08
1.05292e-05
-3.57158e-08
1.0522e-05
-1.96156e-08
1.05169e-05
-4.93519e-09
1.05121e-05
6.34885e-09
1.05094e-05
9.27338e-09
1.05071e-05
1.36892e-08
1.05043e-05
1.68163e-08
1.05018e-05
2.09858e-08
1.04993e-05
2.66223e-08
1.04967e-05
3.24306e-08
1.04944e-05
3.7662e-08
1.04929e-05
4.34862e-08
1.04918e-05
4.86316e-08
1.04913e-05
5.30952e-08
5.64255e-08
1.04915e-05
1.1363e-05
-4.02463e-09
1.13675e-05
-1.71139e-09
1.13715e-05
-1.45538e-08
1.13714e-05
-3.22703e-08
1.13687e-05
-3.19216e-08
1.13593e-05
-2.63313e-08
1.13543e-05
-1.45871e-08
1.13509e-05
-1.48383e-09
1.13498e-05
7.40262e-09
1.13482e-05
1.08639e-08
1.13459e-05
1.59796e-08
1.13431e-05
1.96134e-08
1.13404e-05
2.37675e-08
1.1338e-05
2.90119e-08
1.13355e-05
3.48574e-08
1.13334e-05
3.97641e-08
1.13321e-05
4.48319e-08
1.13312e-05
4.95096e-08
1.13309e-05
5.34283e-08
5.61284e-08
1.13312e-05
1.22702e-05
-4.88585e-09
1.22754e-05
-6.92303e-09
1.22797e-05
-1.8881e-08
1.22786e-05
-3.11138e-08
1.2276e-05
-2.93614e-08
1.22678e-05
-1.80857e-08
1.22601e-05
-6.92158e-09
1.22568e-05
1.79118e-09
1.22553e-05
8.89967e-09
1.22537e-05
1.24663e-08
1.22517e-05
1.80227e-08
1.2249e-05
2.22814e-08
1.22462e-05
2.65932e-08
1.22438e-05
3.13807e-08
1.22416e-05
3.70635e-08
1.22398e-05
4.15674e-08
1.22385e-05
4.61146e-08
1.22379e-05
5.01919e-08
1.22377e-05
5.35665e-08
5.57252e-08
1.22381e-05
1.32497e-05
-5.66306e-09
1.3254e-05
-1.11704e-08
1.32579e-05
-2.27859e-08
1.32558e-05
-2.90218e-08
1.32492e-05
-2.27752e-08
1.32434e-05
-1.23355e-08
1.32389e-05
-2.34874e-09
1.32358e-05
4.811e-09
1.32337e-05
1.10622e-08
1.32319e-05
1.42906e-08
1.32299e-05
2.00248e-08
1.32274e-05
2.47101e-08
1.32247e-05
2.92947e-08
1.32224e-05
3.37116e-08
1.32204e-05
3.9045e-08
1.32188e-05
4.31513e-08
1.32177e-05
4.72484e-08
1.32172e-05
5.06956e-08
1.32172e-05
5.35289e-08
5.52011e-08
1.32177e-05
1.43073e-05
-6.21484e-09
1.43105e-05
-1.44117e-08
1.43129e-05
-2.51332e-08
1.43113e-05
-2.74767e-08
1.43039e-05
-1.53435e-08
1.42985e-05
-6.90855e-09
1.42952e-05
8.81961e-10
1.42929e-05
7.15418e-09
1.42906e-05
1.33462e-08
1.42884e-05
1.64927e-08
1.42864e-05
2.20762e-08
1.42841e-05
2.69459e-08
1.42816e-05
3.17731e-08
1.42794e-05
3.59118e-08
1.42777e-05
4.08108e-08
1.42763e-05
4.45113e-08
1.42754e-05
4.81663e-08
1.42751e-05
5.10235e-08
1.42753e-05
5.33292e-08
5.45528e-08
1.42759e-05
1.54491e-05
-6.36204e-09
1.54502e-05
-1.54961e-08
1.54491e-05
-2.39603e-08
1.54472e-05
-2.5653e-08
1.5444e-05
-1.20746e-08
1.54397e-05
-2.61544e-09
1.54365e-05
4.09862e-09
1.54343e-05
9.32373e-09
1.54321e-05
1.55276e-08
1.54298e-05
1.88411e-08
1.54276e-05
2.4197e-08
1.54255e-05
2.90564e-08
1.54233e-05
3.40254e-08
1.54213e-05
3.79141e-08
1.54197e-05
4.23776e-08
1.54186e-05
4.56368e-08
1.54179e-05
4.88621e-08
1.54177e-05
5.11809e-08
1.54181e-05
5.29779e-08
5.37821e-08
1.54188e-05
1.66823e-05
-6.15612e-09
1.66825e-05
-1.5703e-08
1.66786e-05
-2.0084e-08
1.66755e-05
-2.25884e-08
1.66742e-05
-1.07872e-08
1.66722e-05
-5.34598e-10
1.66695e-05
6.79741e-09
1.66671e-05
1.16833e-08
1.66649e-05
1.77585e-08
1.66625e-05
2.1164e-08
1.66604e-05
2.63647e-08
1.66584e-05
3.10514e-08
1.66564e-05
3.60482e-08
1.66546e-05
3.96912e-08
1.66533e-05
4.3694e-08
1.66524e-05
4.65055e-08
1.66519e-05
4.93143e-08
1.6652e-05
5.115e-08
1.66525e-05
5.24773e-08
5.28875e-08
1.66534e-05
1.80139e-05
-5.65325e-09
1.80121e-05
-1.38953e-08
1.8009e-05
-1.70069e-08
1.80056e-05
-1.91657e-08
1.80041e-05
-9.30416e-09
1.80029e-05
6.93731e-10
1.80009e-05
8.80451e-09
1.79986e-05
1.39253e-08
1.79963e-05
2.00529e-08
1.79941e-05
2.34438e-08
1.79919e-05
2.85062e-08
1.79901e-05
3.29087e-08
1.79883e-05
3.7829e-08
1.79867e-05
4.12344e-08
1.79857e-05
4.47291e-08
1.79851e-05
4.71342e-08
1.79849e-05
4.95291e-08
1.79851e-05
5.09312e-08
1.79857e-05
5.18382e-08
5.1883e-08
1.79867e-05
1.9452e-05
-4.92876e-09
1.94497e-05
-1.16087e-08
1.94466e-05
-1.39153e-08
1.94432e-05
-1.58288e-08
1.94414e-05
-7.41625e-09
1.94401e-05
1.91847e-09
1.94385e-05
1.03984e-08
1.94366e-05
1.58669e-08
1.94344e-05
2.22552e-08
1.94321e-05
2.57014e-08
1.94301e-05
3.05734e-08
1.94284e-05
3.46252e-08
1.94268e-05
3.93499e-08
1.94256e-05
4.25091e-08
1.94248e-05
4.54487e-08
1.94245e-05
4.75217e-08
1.94245e-05
4.9492e-08
1.94249e-05
5.05004e-08
1.94257e-05
5.10388e-08
5.07599e-08
1.94268e-05
2.1005e-05
-4.07812e-09
2.1003e-05
-9.65802e-09
2.09997e-05
-1.06155e-08
2.09962e-05
-1.23756e-08
2.09941e-05
-5.22374e-09
2.09927e-05
3.32212e-09
2.09911e-05
1.19456e-08
2.09894e-05
1.75354e-08
2.09875e-05
2.42379e-08
2.09853e-05
2.78334e-08
2.09834e-05
3.24982e-08
2.09818e-05
3.61753e-08
2.09806e-05
4.0593e-08
2.09797e-05
4.34449e-08
2.09792e-05
4.59273e-08
2.09791e-05
4.76554e-08
2.09793e-05
4.92129e-08
2.098e-05
4.98607e-08
2.09809e-05
5.00738e-08
4.95172e-08
2.09822e-05
2.2682e-05
-3.16477e-09
2.268e-05
-7.64631e-09
2.26769e-05
-7.56531e-09
2.26735e-05
-8.92666e-09
2.26711e-05
-2.79343e-09
2.26695e-05
4.9004e-09
2.26679e-05
1.35009e-08
2.26664e-05
1.91132e-08
2.26647e-05
2.59173e-08
2.26628e-05
2.97076e-08
2.26611e-05
3.42151e-08
2.26597e-05
3.75197e-08
2.26588e-05
4.15573e-08
2.26582e-05
4.39979e-08
2.2658e-05
4.6198e-08
2.26581e-05
4.75292e-08
2.26586e-05
4.86874e-08
2.26595e-05
4.90036e-08
2.26606e-05
4.8933e-08
4.81444e-08
2.2662e-05
2.4493e-05
-2.24303e-09
2.44913e-05
-5.96104e-09
2.44885e-05
-4.68879e-09
2.4485e-05
-5.462e-09
2.44823e-05
-7.72199e-11
2.44805e-05
6.66522e-09
2.44789e-05
1.50713e-08
2.44774e-05
2.06304e-08
2.4476e-05
2.7366e-08
2.44744e-05
3.12388e-08
2.4473e-05
3.56529e-08
2.44719e-05
3.86133e-08
2.44713e-05
4.21877e-08
2.44711e-05
4.42242e-08
2.44711e-05
4.62018e-08
2.44715e-05
4.71371e-08
2.44722e-05
4.79173e-08
2.44733e-05
4.79253e-08
2.44746e-05
4.7614e-08
4.66327e-08
2.44761e-05
2.64487e-05
-1.34966e-09
2.6447e-05
-4.24955e-09
2.64444e-05
-2.17889e-09
2.64412e-05
-2.18976e-09
2.64384e-05
2.74876e-09
2.64364e-05
8.59693e-09
2.64349e-05
1.6629e-08
2.64335e-05
2.20369e-08
2.64322e-05
2.8626e-08
2.6431e-05
3.24314e-08
2.64299e-05
3.67397e-08
2.64291e-05
3.94032e-08
2.64289e-05
4.24269e-08
2.64289e-05
4.42194e-08
2.64292e-05
4.58793e-08
2.64299e-05
4.6474e-08
2.64309e-05
4.69136e-08
2.64322e-05
4.6637e-08
2.64337e-05
4.61165e-08
4.49778e-08
2.64353e-05
2.85605e-05
-5.64408e-10
2.85589e-05
-2.61003e-09
2.85566e-05
1.12484e-10
2.85536e-05
8.23617e-10
2.85508e-05
5.57156e-09
2.85487e-05
1.06508e-08
2.85472e-05
1.81257e-08
2.8546e-05
2.32898e-08
2.85449e-05
2.96668e-08
2.8544e-05
3.33125e-08
2.85433e-05
3.74361e-08
2.8543e-05
3.97757e-08
2.8543e-05
4.23815e-08
2.85433e-05
4.38895e-08
2.8544e-05
4.52349e-08
2.85449e-05
4.55274e-08
2.85462e-05
4.56734e-08
2.85477e-05
4.51428e-08
2.85493e-05
4.44399e-08
4.31772e-08
2.85512e-05
3.0841e-05
1.63398e-10
3.08393e-05
-9.84497e-10
3.08372e-05
2.21556e-09
3.08346e-05
3.44433e-09
3.0832e-05
8.18877e-09
3.083e-05
1.26814e-08
3.08285e-05
1.95594e-08
3.08274e-05
2.43674e-08
3.08267e-05
3.04403e-08
3.08261e-05
3.38798e-08
3.08258e-05
3.77422e-08
3.08258e-05
3.97266e-08
3.08262e-05
4.20297e-08
3.08269e-05
4.32201e-08
3.08278e-05
4.42696e-08
3.08291e-05
4.42955e-08
3.08305e-05
4.41924e-08
3.08322e-05
4.34462e-08
3.08341e-05
4.2585e-08
4.12292e-08
3.0836e-05
3.33035e-05
7.94536e-10
3.3302e-05
4.94804e-10
3.33001e-05
4.15698e-09
3.32978e-05
5.73221e-09
3.32954e-05
1.05684e-08
3.32935e-05
1.45501e-08
3.32922e-05
2.0849e-08
3.32914e-05
2.52312e-08
3.32909e-05
3.08996e-08
3.32907e-05
3.41089e-08
3.32908e-05
3.76529e-08
3.32912e-05
3.92949e-08
3.32919e-05
4.13187e-08
3.32929e-05
4.22009e-08
3.32942e-05
4.29752e-08
3.32957e-05
4.27714e-08
3.32975e-05
4.24592e-08
3.32994e-05
4.15418e-08
3.33014e-05
4.05497e-08
3.91281e-08
3.33035e-05
3.59626e-05
1.32055e-09
3.59612e-05
1.88253e-09
3.59595e-05
5.91811e-09
3.59575e-05
7.65659e-09
3.59555e-05
1.25819e-08
3.59539e-05
1.61309e-08
3.59529e-05
2.19003e-08
3.59523e-05
2.58543e-08
3.59521e-05
3.1015e-08
3.59523e-05
3.39585e-08
3.59528e-05
3.71202e-08
3.59536e-05
3.84943e-08
3.59547e-05
4.02082e-08
3.59561e-05
4.08098e-08
3.59578e-05
4.13416e-08
3.59596e-05
4.09538e-08
3.59616e-05
4.04792e-08
3.59637e-05
3.94349e-08
3.59659e-05
3.83505e-08
3.68833e-08
3.59681e-05
3.8834e-05
1.7813e-09
3.88328e-05
3.08715e-09
3.88313e-05
7.3661e-09
3.88298e-05
9.22502e-09
3.88281e-05
1.42217e-08
3.88269e-05
1.73743e-08
3.88261e-05
2.26465e-08
3.88258e-05
2.61523e-08
3.88261e-05
3.07362e-08
3.88267e-05
3.33948e-08
3.88277e-05
3.61103e-08
3.88289e-05
3.73341e-08
3.88304e-05
3.87135e-08
3.88321e-05
3.90565e-08
3.88341e-05
3.93757e-08
3.88362e-05
3.8843e-08
3.88384e-05
3.82548e-08
3.88407e-05
3.71201e-08
3.88431e-05
3.5989e-08
3.44945e-08
3.88455e-05
4.19347e-05
2.15382e-09
4.19337e-05
4.08044e-09
4.19325e-05
8.5316e-09
4.19313e-05
1.04362e-08
4.19301e-05
1.53923e-08
4.19293e-05
1.81837e-08
4.1929e-05
2.2989e-08
4.1929e-05
2.60781e-08
4.19298e-05
3.00239e-08
4.19308e-05
3.23477e-08
4.19322e-05
3.47e-08
4.19338e-05
3.57487e-08
4.19357e-05
3.68358e-08
4.19378e-05
3.69445e-08
4.19401e-05
3.70786e-08
4.19425e-05
3.64341e-08
4.1945e-05
3.57776e-08
4.19475e-05
3.45922e-08
4.195e-05
3.34544e-08
3.19631e-08
4.19526e-05
4.52829e-05
2.42824e-09
4.52821e-05
4.82347e-09
4.52813e-05
9.41521e-09
4.52804e-05
1.12856e-08
4.52798e-05
1.60055e-08
4.52795e-05
1.84769e-08
4.52797e-05
2.27951e-08
4.52802e-05
2.55302e-08
4.52814e-05
2.88438e-08
4.52829e-05
3.08527e-08
4.52847e-05
3.2889e-08
4.52867e-05
3.3738e-08
4.5289e-05
3.45777e-08
4.52914e-05
3.45057e-08
4.5294e-05
3.44758e-08
4.52967e-05
3.37502e-08
4.52994e-05
3.30537e-08
4.53022e-05
3.18554e-08
4.53049e-05
3.07395e-08
2.92857e-08
4.53076e-05
4.88984e-05
2.63674e-09
4.8898e-05
5.25943e-09
4.88975e-05
9.86851e-09
4.88971e-05
1.17205e-08
4.88969e-05
1.6129e-08
4.88972e-05
1.82564e-08
4.88979e-05
2.20414e-08
4.8899e-05
2.442e-08
4.89007e-05
2.71961e-08
4.89026e-05
2.88919e-08
4.89049e-05
3.06136e-08
4.89074e-05
3.12662e-08
4.89101e-05
3.19048e-08
4.89129e-05
3.16962e-08
4.89158e-05
3.15558e-08
4.89188e-05
3.0776e-08
4.89217e-05
3.00782e-08
4.89247e-05
2.89031e-08
4.89276e-05
2.78424e-08
2.64612e-08
4.89304e-05
5.28026e-05
2.70699e-09
5.28025e-05
5.42525e-09
5.28025e-05
9.85561e-09
5.28025e-05
1.1694e-08
5.2803e-05
1.56889e-08
5.28037e-05
1.74855e-08
5.28051e-05
2.07004e-08
5.28067e-05
2.27604e-08
5.28089e-05
2.50425e-08
5.28113e-05
2.64465e-08
5.28141e-05
2.78648e-08
5.2817e-05
2.83427e-08
5.28201e-05
2.8818e-08
5.28233e-05
2.85096e-08
5.28265e-05
2.83101e-08
5.28298e-05
2.7511e-08
5.2833e-05
2.68449e-08
5.28362e-05
2.57285e-08
5.28393e-05
2.47512e-08
2.34741e-08
5.28423e-05
5.70186e-05
2.67027e-09
5.70186e-05
5.3412e-09
5.7019e-05
9.53135e-09
5.70196e-05
1.10706e-08
5.70207e-05
1.45506e-08
5.70222e-05
1.59952e-08
5.70242e-05
1.87547e-08
5.70264e-05
2.05521e-08
5.7029e-05
2.23867e-08
5.7032e-05
2.34869e-08
5.70352e-05
2.46437e-08
5.70386e-05
2.49533e-08
5.70421e-05
2.53251e-08
5.70457e-05
2.49375e-08
5.70492e-05
2.47374e-08
5.70528e-05
2.39492e-08
5.70563e-05
2.33579e-08
5.70597e-05
2.233e-08
5.7063e-05
2.14734e-08
2.03194e-08
5.70661e-05
6.15711e-05
2.50486e-09
6.15715e-05
4.91968e-09
6.15724e-05
8.66029e-09
6.15736e-05
9.88163e-09
6.15753e-05
1.28054e-08
6.15774e-05
1.39621e-08
6.15799e-05
1.62066e-08
6.15827e-05
1.77195e-08
6.15859e-05
1.92107e-08
6.15894e-05
2.00107e-08
6.15931e-05
2.09381e-08
6.15969e-05
2.11089e-08
6.16009e-05
2.14064e-08
6.16048e-05
2.09922e-08
6.16087e-05
2.08096e-08
6.16126e-05
2.00797e-08
6.16164e-05
1.95688e-08
6.162e-05
1.86714e-08
6.16236e-05
1.79669e-08
1.70324e-08
6.16268e-05
6.64872e-05
2.14177e-09
6.64881e-05
3.98643e-09
6.64896e-05
7.16817e-09
6.64913e-05
8.17163e-09
6.64935e-05
1.06035e-08
6.64961e-05
1.14054e-08
6.64991e-05
1.31252e-08
6.65026e-05
1.42629e-08
6.65064e-05
1.54449e-08
6.65104e-05
1.60042e-08
6.65146e-05
1.67365e-08
6.65189e-05
1.68088e-08
6.65232e-05
1.70605e-08
6.65275e-05
1.66772e-08
6.65318e-05
1.65363e-08
6.6536e-05
1.59262e-08
6.654e-05
1.5518e-08
6.65439e-05
1.47859e-08
6.65477e-05
1.42012e-08
1.34166e-08
6.65513e-05
7.17956e-05
1.72046e-09
7.17967e-05
2.83441e-09
7.17986e-05
5.30076e-09
7.1801e-05
5.80205e-09
7.18038e-05
7.77076e-09
7.18071e-05
8.15044e-09
7.18107e-05
9.49827e-09
7.18147e-05
1.02203e-08
7.1819e-05
1.11287e-08
7.18236e-05
1.14512e-08
7.18283e-05
1.20613e-08
7.1833e-05
1.20375e-08
7.18378e-05
1.22848e-08
7.18425e-05
1.19634e-08
7.18472e-05
1.18965e-08
7.18517e-05
1.14389e-08
7.1856e-05
1.11629e-08
7.18602e-05
1.0636e-08
7.18641e-05
1.02291e-08
9.68374e-09
7.18679e-05
7.75281e-05
7.75297e-05
7.7532e-05
7.75348e-05
7.75383e-05
7.75421e-05
7.75464e-05
7.75511e-05
7.7556e-05
7.75612e-05
7.75665e-05
7.75718e-05
7.75771e-05
7.75824e-05
7.75875e-05
7.75924e-05
7.75972e-05
7.76018e-05
7.76061e-05
7.76103e-05
3.77493e-06
6.60908e-08
3.68029e-06
9.46372e-08
3.57998e-06
1.00312e-07
3.4815e-06
9.84809e-08
3.38348e-06
9.80169e-08
3.2843e-06
9.91838e-08
3.18322e-06
1.01076e-07
3.08022e-06
1.03004e-07
2.97545e-06
1.04767e-07
2.86899e-06
1.06463e-07
2.76072e-06
1.08271e-07
2.65053e-06
1.10184e-07
2.53843e-06
1.12098e-07
2.4245e-06
1.13938e-07
2.30874e-06
1.15761e-07
2.19118e-06
1.17557e-07
2.07203e-06
1.19149e-07
1.95155e-06
1.20483e-07
1.83012e-06
1.21425e-07
1.70836e-06
1.21761e-07
1.58703e-06
1.21326e-07
1.46748e-06
1.1955e-07
1.3519e-06
1.15585e-07
1.24272e-06
1.09183e-07
1.14322e-06
9.94954e-08
1.05695e-06
8.62662e-08
9.86989e-07
6.9966e-08
9.34568e-07
5.24203e-08
8.97716e-07
3.68529e-08
8.72361e-07
2.53549e-08
8.54561e-07
1.77999e-08
8.41491e-07
1.30697e-08
8.3109e-07
1.04012e-08
8.22113e-07
8.97728e-09
8.13766e-07
8.34613e-09
8.0539e-07
8.37632e-09
7.966e-07
8.78989e-09
7.87264e-07
9.33583e-09
7.77424e-07
9.84023e-09
7.67135e-07
1.02895e-08
7.56479e-07
1.06561e-08
7.45562e-07
1.09168e-08
7.34527e-07
1.10352e-08
7.23482e-07
1.1045e-08
7.12467e-07
1.10143e-08
7.01557e-07
1.09102e-08
6.90762e-07
1.07948e-08
6.80163e-07
1.05989e-08
6.6976e-07
1.04032e-08
6.5962e-07
1.01397e-08
6.49684e-07
9.93692e-09
6.40005e-07
9.67868e-09
6.30546e-07
9.45845e-09
6.2133e-07
9.21662e-09
6.12341e-07
8.9884e-09
6.03582e-07
8.75919e-09
5.95044e-07
8.53779e-09
5.86721e-07
8.32355e-09
5.78628e-07
8.09284e-09
5.70746e-07
7.88205e-09
5.63078e-07
7.6678e-09
5.55629e-07
7.44921e-09
5.4838e-07
7.24893e-09
5.41373e-07
7.00725e-09
5.34494e-07
6.87832e-09
5.27817e-07
6.67744e-09
5.21231e-07
6.58577e-09
5.14817e-07
6.41463e-09
5.08503e-07
6.31338e-09
5.02348e-07
6.15527e-09
4.96349e-07
5.99881e-09
4.90475e-07
5.87444e-09
4.84766e-07
5.70904e-09
4.79144e-07
5.6216e-09
4.73608e-07
5.53589e-09
4.68184e-07
5.4239e-09
4.62773e-07
5.41095e-09
4.57575e-07
5.19805e-09
4.52376e-07
5.19945e-09
4.47408e-07
4.96739e-09
4.42448e-07
4.96004e-09
4.37626e-07
4.82227e-09
4.32859e-07
4.76675e-09
4.28163e-07
4.69619e-09
4.23584e-07
4.57915e-09
4.1912e-07
4.46402e-09
4.14715e-07
4.40508e-09
4.10493e-07
4.2216e-09
4.06276e-07
4.2169e-09
4.02248e-07
4.02881e-09
3.98227e-07
4.02104e-09
3.94433e-07
3.79389e-09
3.90621e-07
3.81187e-09
3.87026e-07
3.59476e-09
3.83417e-07
3.60889e-09
3.80058e-07
3.35915e-09
3.76623e-07
3.43471e-09
3.73365e-07
3.25856e-09
3.69957e-07
3.40732e-09
3.92825e-09
4.16478e-06
6.02403e-08
4.1684e-06
9.10172e-08
4.16243e-06
1.06281e-07
4.15225e-06
1.08658e-07
4.14148e-06
1.08786e-07
4.12967e-06
1.10999e-07
4.11549e-06
1.15253e-07
4.09836e-06
1.20134e-07
4.07822e-06
1.24911e-07
4.0551e-06
1.29582e-07
4.02889e-06
1.34481e-07
3.99939e-06
1.39683e-07
3.96641e-06
1.45073e-07
3.92979e-06
1.50563e-07
3.88938e-06
1.56166e-07
3.84499e-06
1.61952e-07
3.79649e-06
1.67646e-07
3.74381e-06
1.73164e-07
3.68686e-06
1.78371e-07
3.62573e-06
1.82889e-07
3.56058e-06
1.86484e-07
3.49176e-06
1.88362e-07
3.42022e-06
1.87132e-07
3.347e-06
1.82403e-07
3.27352e-06
1.72975e-07
3.20161e-06
1.58176e-07
3.13331e-06
1.38267e-07
3.07018e-06
1.15554e-07
3.01311e-06
9.3918e-08
2.96169e-06
7.67786e-08
2.91435e-06
6.5133e-08
2.8697e-06
5.77252e-08
2.8268e-06
5.3302e-08
2.78502e-06
5.07541e-08
2.7442e-06
4.91661e-08
2.70405e-06
4.85311e-08
2.66428e-06
4.8555e-08
2.62483e-06
4.87901e-08
2.58567e-06
4.89995e-08
2.54679e-06
4.91674e-08
2.50818e-06
4.92645e-08
2.46989e-06
4.92084e-08
2.43199e-06
4.8933e-08
2.39458e-06
4.84517e-08
2.3577e-06
4.7897e-08
2.3214e-06
4.7213e-08
2.28568e-06
4.65169e-08
2.25063e-06
4.56463e-08
2.21627e-06
4.47623e-08
2.18269e-06
4.37169e-08
2.14986e-06
4.277e-08
2.11784e-06
4.16977e-08
2.08658e-06
4.07187e-08
2.05613e-06
3.96624e-08
2.02644e-06
3.86869e-08
1.99752e-06
3.76771e-08
1.96933e-06
3.67261e-08
1.9419e-06
3.57494e-08
1.91519e-06
3.48089e-08
1.8892e-06
3.38746e-08
1.86387e-06
3.29902e-08
1.83926e-06
3.20588e-08
1.81529e-06
3.12234e-08
1.792e-06
3.02983e-08
1.76923e-06
2.96471e-08
1.74706e-06
2.8843e-08
1.72532e-06
2.83286e-08
1.70411e-06
2.76211e-08
1.68329e-06
2.71404e-08
1.66297e-06
2.64771e-08
1.64304e-06
2.5929e-08
1.62359e-06
2.53219e-08
1.60453e-06
2.47714e-08
1.58588e-06
2.42628e-08
1.56752e-06
2.39039e-08
1.54953e-06
2.34071e-08
1.53173e-06
2.32177e-08
1.5144e-06
2.25243e-08
1.49725e-06
2.23546e-08
1.48063e-06
2.15811e-08
1.46416e-06
2.1436e-08
1.44814e-06
2.08415e-08
1.43224e-06
2.0665e-08
1.41675e-06
2.01831e-08
1.40143e-06
1.98955e-08
1.38661e-06
1.9285e-08
1.37192e-06
1.91017e-08
1.35778e-06
1.83591e-08
1.34368e-06
1.83128e-08
1.33022e-06
1.74959e-08
1.31676e-06
1.74738e-08
1.30402e-06
1.65354e-08
1.29122e-06
1.66143e-08
1.2792e-06
1.56101e-08
1.26708e-06
1.57319e-08
1.25584e-06
1.46005e-08
1.24436e-06
1.49142e-08
1.23373e-06
1.38907e-08
1.22277e-06
1.43622e-08
1.51353e-08
4.49706e-06
6.07146e-08
4.50254e-06
8.55343e-08
4.50598e-06
1.02839e-07
4.5055e-06
1.09146e-07
4.50405e-06
1.10232e-07
4.50349e-06
1.11563e-07
4.5035e-06
1.15238e-07
4.50335e-06
1.20283e-07
4.5026e-06
1.2566e-07
4.50116e-06
1.3103e-07
4.49897e-06
1.36664e-07
4.49594e-06
1.42714e-07
4.49193e-06
1.4908e-07
4.48678e-06
1.55716e-07
4.48038e-06
1.6257e-07
4.47255e-06
1.69782e-07
4.46316e-06
1.77031e-07
4.45208e-06
1.84246e-07
4.43914e-06
1.91312e-07
4.42424e-06
1.97786e-07
4.40734e-06
2.03383e-07
4.38839e-06
2.07313e-07
4.36731e-06
2.08212e-07
4.34439e-06
2.05327e-07
4.31967e-06
1.97697e-07
4.29348e-06
1.84361e-07
4.26625e-06
1.655e-07
4.23872e-06
1.43083e-07
4.21188e-06
1.20752e-07
4.18636e-06
1.02299e-07
4.16186e-06
8.96341e-08
4.13775e-06
8.18387e-08
4.11353e-06
7.75176e-08
4.08902e-06
7.52632e-08
4.06407e-06
7.41202e-08
4.03868e-06
7.3919e-08
4.01274e-06
7.44936e-08
3.98623e-06
7.53063e-08
3.95909e-06
7.61382e-08
3.93134e-06
7.69149e-08
3.90294e-06
7.76644e-08
3.87393e-06
7.82235e-08
3.84431e-06
7.85457e-08
3.81417e-06
7.85957e-08
3.7835e-06
7.85669e-08
3.75238e-06
7.83362e-08
3.72079e-06
7.81041e-08
3.68883e-06
7.76076e-08
3.65652e-06
7.70736e-08
3.62395e-06
7.6287e-08
3.59111e-06
7.56117e-08
3.55812e-06
7.46848e-08
3.52493e-06
7.39021e-08
3.4917e-06
7.29011e-08
3.45834e-06
7.20412e-08
3.42499e-06
7.10319e-08
3.39158e-06
7.01346e-08
3.35824e-06
6.90866e-08
3.32492e-06
6.81278e-08
3.29176e-06
6.70403e-08
3.25867e-06
6.60801e-08
3.22582e-06
6.49075e-08
3.19314e-06
6.39058e-08
3.16075e-06
6.26799e-08
3.12853e-06
6.18709e-08
3.09663e-06
6.07456e-08
3.06486e-06
6.00922e-08
3.03344e-06
5.90462e-08
3.00217e-06
5.84125e-08
2.97129e-06
5.73524e-08
2.94061e-06
5.6614e-08
2.91038e-06
5.55486e-08
2.88037e-06
5.47794e-08
2.85083e-06
5.38062e-08
2.82146e-06
5.3277e-08
2.79254e-06
5.23263e-08
2.76375e-06
5.20053e-08
2.73551e-06
5.07611e-08
2.70742e-06
5.04426e-08
2.67997e-06
4.90305e-08
2.65265e-06
4.87602e-08
2.62594e-06
4.75497e-08
2.59929e-06
4.7319e-08
2.57331e-06
4.61628e-08
2.54738e-06
4.58231e-08
2.52222e-06
4.44429e-08
2.49712e-06
4.42053e-08
2.47286e-06
4.26222e-08
2.44853e-06
4.26374e-08
2.42518e-06
4.08437e-08
2.40175e-06
4.09102e-08
2.37941e-06
3.88711e-08
2.35688e-06
3.91506e-08
2.33559e-06
3.68968e-08
2.31407e-06
3.72466e-08
2.29391e-06
3.47678e-08
2.27339e-06
3.54313e-08
2.25423e-06
3.30538e-08
2.23469e-06
3.38968e-08
3.42193e-08
4.85767e-06
6.2279e-08
4.86178e-06
8.14282e-08
4.86629e-06
9.83228e-08
4.86775e-06
1.07687e-07
4.86718e-06
1.10802e-07
4.86703e-06
1.11712e-07
4.86764e-06
1.14635e-07
4.86891e-06
1.19011e-07
4.87036e-06
1.24205e-07
4.87173e-06
1.29668e-07
4.87296e-06
1.35433e-07
4.87408e-06
1.41594e-07
4.87509e-06
1.48071e-07
4.87596e-06
1.54845e-07
4.87668e-06
1.61847e-07
4.87725e-06
1.69216e-07
4.87761e-06
1.76666e-07
4.87778e-06
1.84077e-07
4.8777e-06
1.91395e-07
4.87736e-06
1.98129e-07
4.87678e-06
2.03961e-07
4.87589e-06
2.082e-07
4.87443e-06
2.09671e-07
4.87228e-06
2.07484e-07
4.86917e-06
2.00798e-07
4.86476e-06
1.88772e-07
4.8587e-06
1.71561e-07
4.85113e-06
1.50651e-07
4.84266e-06
1.29228e-07
4.83409e-06
1.10866e-07
4.82576e-06
9.79696e-08
4.81747e-06
9.01237e-08
4.80896e-06
8.60257e-08
4.80018e-06
8.40483e-08
4.79093e-06
8.33652e-08
4.78137e-06
8.34796e-08
4.77146e-06
8.44056e-08
4.7612e-06
8.5561e-08
4.7505e-06
8.68416e-08
4.73937e-06
8.80459e-08
4.72772e-06
8.93191e-08
4.71556e-06
9.03791e-08
4.70283e-06
9.12759e-08
4.68955e-06
9.18717e-08
4.67567e-06
9.24555e-08
4.6612e-06
9.27984e-08
4.64611e-06
9.3198e-08
4.63043e-06
9.32879e-08
4.61412e-06
9.33798e-08
4.59725e-06
9.31563e-08
4.57975e-06
9.31168e-08
4.56172e-06
9.27153e-08
4.54305e-06
9.25691e-08
4.52389e-06
9.20636e-08
4.5041e-06
9.18277e-08
4.48385e-06
9.12878e-08
4.46296e-06
9.10158e-08
4.44165e-06
9.04008e-08
4.41972e-06
9.00532e-08
4.3974e-06
8.93671e-08
4.37449e-06
8.89877e-08
4.35121e-06
8.81898e-08
4.32742e-06
8.76912e-08
4.3033e-06
8.67982e-08
4.2787e-06
8.64718e-08
4.2538e-06
8.56467e-08
4.22841e-06
8.54835e-08
4.20277e-06
8.46921e-08
4.17661e-06
8.4567e-08
4.15031e-06
8.36529e-08
4.12349e-06
8.34338e-08
4.09663e-06
8.24125e-08
4.06927e-06
8.21381e-08
4.04188e-06
8.11907e-08
4.01403e-06
8.11254e-08
3.98613e-06
8.02288e-08
3.95783e-06
8.03063e-08
3.92954e-06
7.90498e-08
3.90091e-06
7.90756e-08
3.87244e-06
7.75043e-08
3.84356e-06
7.76377e-08
3.81498e-06
7.61245e-08
3.7859e-06
7.64054e-08
3.75726e-06
7.47984e-08
3.72817e-06
7.49173e-08
3.69961e-06
7.30031e-08
3.67065e-06
7.31606e-08
3.64233e-06
7.09434e-08
3.61355e-06
7.14215e-08
3.58554e-06
6.8851e-08
3.5571e-06
6.9353e-08
3.5296e-06
6.63664e-08
3.50159e-06
6.71628e-08
3.47471e-06
6.37729e-08
3.44736e-06
6.46022e-08
3.42127e-06
6.08585e-08
3.39465e-06
6.20507e-08
3.3693e-06
5.83963e-08
3.3435e-06
5.97004e-08
5.92377e-08
5.2475e-06
6.28155e-08
5.25031e-06
7.86171e-08
5.25451e-06
9.41255e-08
5.25702e-06
1.05178e-07
5.25752e-06
1.10303e-07
5.25736e-06
1.11865e-07
5.25765e-06
1.14352e-07
5.25875e-06
1.17907e-07
5.26038e-06
1.22578e-07
5.26209e-06
1.27951e-07
5.26374e-06
1.33789e-07
5.26537e-06
1.39962e-07
5.26699e-06
1.46454e-07
5.26864e-06
1.5319e-07
5.27034e-06
1.60147e-07
5.27217e-06
1.67392e-07
5.27408e-06
1.74751e-07
5.27618e-06
1.81975e-07
5.27846e-06
1.89119e-07
5.28098e-06
1.95611e-07
5.28379e-06
2.01145e-07
5.28689e-06
2.05102e-07
5.29e-06
2.06558e-07
5.29299e-06
2.04492e-07
5.29554e-06