/*--------------------------------*- C++ -*----------------------------------*\
| =========                 |                                                 |
| \\      /  F ield         | OpenFOAM: The Open Source CFD Toolbox           |
|  \\    /   O peration     | Version:  v2106                                 |
|   \\  /    A nd           | Website:  www.openfoam.com                      |
|    \\/     M anipulation  |                                                 |
\*---------------------------------------------------------------------------*/
FoamFile
{
    version     2.0;
    format      ascii;
    arch        "LSB;label=32;scalar=64";
    class       volVectorField;
    location    "1.7";
    object      U;
}
// * * * * * * * * * * * * * * * * * * * * * * * * * * * * * * * * * * * * * //

dimensions      [0 1 -1 0 0 0 0];

internalField   nonuniform List<vector> 
4800
(
(0.960438 2.29407e-05 0)
(1.03904 3.11985e-05 0)
(0.964479 0.000174681 0)
(1.03552 -0.000432516 0)
(0.967341 -4.05877e-05 0)
(1.03175 -0.000418263 0)
(0.97062 0.000143347 0)
(1.02855 -0.000209105 0)
(0.974243 0.00011837 0)
(1.02558 -0.000520604 0)
(0.97697 -1.5243e-05 0)
(1.0224 -0.000635809 0)
(0.979249 -4.36541e-05 0)
(1.01941 -0.000672543 0)
(0.981224 -7.98303e-05 0)
(1.01643 -0.000660568 0)
(0.982675 -6.77976e-05 0)
(1.01329 -0.000654255 0)
(0.983444 0.000168524 0)
(1.01002 0.000518517 0)
(0.982763 -4.84992e-05 0)
(1.01474 6.92074e-05 0)
(0.987182 0.000139849 0)
(1.01148 -0.000396551 0)
(0.989949 -5.6362e-05 0)
(1.00838 -0.000424989 0)
(0.992607 0.000131872 0)
(1.00613 -0.000250643 0)
(0.995165 0.000100162 0)
(1.00443 -0.000575009 0)
(0.996622 -4.7286e-05 0)
(1.00275 -0.000690965 0)
(0.997467 -7.55939e-05 0)
(1.00136 -0.000733084 0)
(0.997901 -8.94598e-05 0)
(1.00003 -0.00071163 0)
(0.997766 4.72803e-05 0)
(0.998557 -0.000345163 0)
(0.997235 0.000931977 0)
(0.99709 0.00170963 0)
(0.995924 5.12657e-05 0)
(1.00277 -3.73339e-05 0)
(0.997825 0.000206184 0)
(1.00193 -0.000430376 0)
(0.998476 -9.3175e-07 0)
(1.00104 -0.000412787 0)
(0.999133 0.000105921 0)
(1.0007 -0.000219652 0)
(0.999868 4.97508e-05 0)
(1.00062 -0.000391908 0)
(0.999974 -0.000152779 0)
(1.00023 -0.000444646 0)
(0.999807 -0.000234599 0)
(0.999835 -0.00048479 0)
(0.999477 -0.000282415 0)
(0.999262 -0.00036946 0)
(0.998828 -3.05913e-05 0)
(0.998422 0.000380944 0)
(0.997984 0.00113269 0)
(0.997535 0.00215367 0)
(0.999399 1.78957e-05 0)
(1.00029 -1.02067e-05 0)
(1.00014 0.000172439 0)
(1.00044 -0.000419197 0)
(1.00008 -5.21062e-05 0)
(1.00025 -0.000394392 0)
(1.0002 4.26755e-05 0)
(1.00033 -0.000163416 0)
(1.00052 -5.69826e-05 0)
(1.00051 -0.000361175 0)
(1.00043 -0.000258333 0)
(1.00029 -0.000458776 0)
(1.00016 -0.000334431 0)
(0.999992 -0.000507933 0)
(0.999791 -0.000355503 0)
(0.9995 -0.000306746 0)
(0.999171 -1.07073e-05 0)
(0.998767 0.00046998 0)
(0.998435 0.00126299 0)
(0.998057 0.00239693 0)
(0.999995 3.70238e-05 0)
(0.999966 -3.87439e-05 0)
(1.0005 0.000140318 0)
(1.00028 -0.000357151 0)
(1.00035 -8.94277e-05 0)
(1.00022 -0.000302948 0)
(1.00042 -5.04024e-05 0)
(1.00035 -8.64539e-05 0)
(1.00069 -0.000142209 0)
(1.00055 -0.000298194 0)
(1.00057 -0.000317326 0)
(1.00035 -0.000421224 0)
(1.0003 -0.000384015 0)
(1.00007 -0.000442228 0)
(0.999956 -0.00035909 0)
(0.999627 -0.000183164 0)
(0.999396 0.000108879 0)
(0.999023 0.000858937 0)
(0.998823 0.00175739 0)
(0.998426 0.00276046 0)
(1.00015 2.29583e-05 0)
(0.999856 -1.25275e-05 0)
(1.00062 7.90611e-05 0)
(1.00019 -0.000307448 0)
(1.00047 -0.0001688 0)
(1.00017 -0.000237481 0)
(1.00054 -0.000137624 0)
(1.0003 -7.02003e-05 0)
(1.00077 -0.000212836 0)
(1.0005 -0.000301409 0)
(1.00065 -0.000383201 0)
(1.00032 -0.000416137 0)
(1.00038 -0.000427746 0)
(1.00006 -0.000411846 0)
(1.00006 -0.000345395 0)
(0.999675 -3.61738e-05 0)
(0.99961 0.00048895 0)
(0.999235 0.00137121 0)
(0.999108 0.00211897 0)
(0.998659 0.00287587 0)
(1.00024 2.49107e-05 0)
(0.999785 -6.8459e-06 0)
(1.00068 1.54534e-05 0)
(1.00013 -0.000251088 0)
(1.00054 -0.000202957 0)
(1.00012 -0.000223765 0)
(1.00061 -0.000162151 0)
(1.00026 -0.000133169 0)
(1.00082 -0.00022252 0)
(1.00046 -0.000352137 0)
(1.0007 -0.000364402 0)
(1.00029 -0.000450914 0)
(1.00043 -0.000392134 0)
(1.00005 -0.000396655 0)
(1.00015 -0.000157992 0)
(0.999774 0.000366026 0)
(0.999824 0.00100624 0)
(0.999396 0.00164638 0)
(0.999318 0.00224895 0)
(0.998844 0.00286897 0)
(1.00024 9.57384e-06 0)
(0.99979 2.74602e-05 0)
(1.00066 -6.62486e-05 0)
(1.00013 -0.000224873 0)
(1.00054 -0.000232153 0)
(1.00013 -0.000214169 0)
(1.00062 -0.000219451 0)
(1.00027 -0.000143678 0)
(1.00081 -0.000265136 0)
(1.00046 -0.000362871 0)
(1.0007 -0.000382769 0)
(1.0003 -0.000442253 0)
(1.00045 -0.000357605 0)
(1.00009 -0.000229143 0)
(1.00027 0.000219166 0)
(0.999919 0.000787798 0)
(0.999957 0.00122034 0)
(0.999547 0.00168451 0)
(0.999491 0.00223221 0)
(0.999049 0.00282142 0)
(1.00017 6.60157e-06 0)
(0.999864 3.17802e-05 0)
(1.00059 -8.80005e-05 0)
(1.0002 -0.00027825 0)
(1.00048 -0.000212388 0)
(1.0002 -0.000246458 0)
(1.00057 -0.000244376 0)
(1.00032 -0.00020886 0)
(1.00075 -0.000284953 0)
(1.0005 -0.00039174 0)
(1.00066 -0.000378128 0)
(1.00035 -0.000422435 0)
(1.00045 -0.000220055 0)
(1.00022 0.000185219 0)
(1.00036 0.000584937 0)
(1.00005 0.000957079 0)
(1.00004 0.00129004 0)
(0.99972 0.00170951 0)
(0.999653 0.002244 0)
(0.999285 0.00282387 0)
(1.00008 3.85361e-06 0)
(0.999958 4.87254e-05 0)
(1.00049 -9.83625e-05 0)
(1.00028 -0.000301375 0)
(1.00042 -0.000273457 0)
(1.00027 -0.000259919 0)
(1.00052 -0.000303547 0)
(1.00038 -0.000242836 0)
(1.00069 -0.000313459 0)
(1.00056 -0.000385185 0)
(1.00062 -0.000368918 0)
(1.00043 -0.00026717 0)
(1.00051 0.00013403 0)
(1.00035 0.000503279 0)
(1.0004 0.000729374 0)
(1.00018 0.00100883 0)
(1.00012 0.00135345 0)
(0.999907 0.0017697 0)
(0.999823 0.00228664 0)
(0.999532 0.00284561 0)
(1.00002 -1.56138e-05 0)
(1.00002 7.15674e-05 0)
(1.00041 -0.000120871 0)
(1.00033 -0.000314469 0)
(1.00037 -0.000338737 0)
(1.00033 -0.000310248 0)
(1.00048 -0.000339943 0)
(1.00043 -0.000266921 0)
(1.00065 -0.00031534 0)
(1.0006 -0.00035581 0)
(1.00061 -0.000202455 0)
(1.00055 0.000110319 0)
(1.00056 0.000395812 0)
(1.00044 0.000597448 0)
(1.00044 0.000765057 0)
(1.0003 0.00104311 0)
(1.00023 0.00141696 0)
(1.00009 0.00183675 0)
(1.00001 0.002329 0)
(0.999775 0.00285593 0)
(0.999986 -7.05124e-06 0)
(1.00005 7.5266e-05 0)
(1.00036 -0.000130894 0)
(1.00035 -0.000335864 0)
(1.00035 -0.000416015 0)
(1.00036 -0.000416152 0)
(1.00046 -0.000380935 0)
(1.00047 -0.000295534 0)
(1.00063 -0.00027147 0)
(1.00065 -0.000220854 0)
(1.00067 0.000131794 0)
(1.00062 0.000309182 0)
(1.00059 0.000444605 0)
(1.0005 0.000620625 0)
(1.0005 0.000823748 0)
(1.00042 0.00111204 0)
(1.00036 0.00149996 0)
(1.00028 0.00191967 0)
(1.0002 0.00238329 0)
(1.00001 0.00287021 0)
(0.999977 -3.50071e-05 0)
(1.00005 0.000112583 0)
(1.00033 -0.000162313 0)
(1.00035 -0.000324784 0)
(1.00033 -0.000497441 0)
(1.00038 -0.000481813 0)
(1.00048 -0.000454398 0)
(1.00049 -0.000250339 0)
(1.00065 -8.81234e-05 0)
(1.00072 0.000103249 0)
(1.00071 0.000279853 0)
(1.00065 0.000351397 0)
(1.00063 0.000472843 0)
(1.00057 0.000677636 0)
(1.00058 0.000918014 0)
(1.00055 0.00120887 0)
(1.00051 0.00158871 0)
(1.00046 0.0019991 0)
(1.0004 0.0024345 0)
(1.00024 0.00287969 0)
(0.999977 -2.1721e-05 0)
(1.00005 5.06425e-05 0)
(1.0003 -0.000107949 0)
(1.00033 -0.000403234 0)
(1.00032 -0.000469566 0)
(1.00039 -0.000576865 0)
(1.0005 -0.00040992 0)
(1.00055 -0.000156096 0)
(1.0007 0.000142292 0)
(1.00074 0.000220111 0)
(1.00073 0.000304706 0)
(1.00068 0.00038947 0)
(1.00069 0.000530802 0)
(1.00065 0.000752857 0)
(1.00067 0.00101387 0)
(1.00068 0.00129999 0)
(1.00067 0.0016608 0)
(1.00064 0.00205523 0)
(1.0006 0.00246582 0)
(1.00046 0.00287338 0)
(0.999981 -4.07605e-05 0)
(1.00005 3.75245e-06 0)
(1.00028 -0.000137224 0)
(1.00031 -0.000415473 0)
(1.00032 -0.000472898 0)
(1.00041 -0.000485913 0)
(1.00056 -0.00029539 0)
(1.00061 -3.85243e-05 0)
(1.00074 0.000135874 0)
(1.00077 0.000203839 0)
(1.00077 0.000331942 0)
(1.00073 0.000451455 0)
(1.00076 0.000611283 0)
(1.00075 0.000832502 0)
(1.00078 0.00110267 0)
(1.00081 0.00138358 0)
(1.00084 0.00172587 0)
(1.00083 0.00209867 0)
(1.00081 0.00248553 0)
(1.00068 0.00286022 0)
(0.999985 -4.34131e-05 0)
(1.00005 -4.49383e-05 0)
(1.00025 -0.000199474 0)
(1.0003 -0.000402922 0)
(1.00033 -0.000453373 0)
(1.00044 -0.000342379 0)
(1.00061 -0.000158365 0)
(1.00066 -2.95697e-06 0)
(1.00078 0.000149149 0)
(1.00082 0.000240898 0)
(1.00082 0.000393343 0)
(1.00079 0.000535591 0)
(1.00083 0.000702814 0)
(1.00085 0.000914601 0)
(1.0009 0.00118534 0)
(1.00095 0.00146321 0)
(1.00101 0.00178807 0)
(1.00103 0.00213701 0)
(1.00102 0.00249852 0)
(1.0009 0.00284381 0)
(0.999989 -5.22865e-05 0)
(1.00004 -0.000101334 0)
(1.00024 -0.000264081 0)
(1.0003 -0.00038461 0)
(1.00036 -0.000381639 0)
(1.00049 -0.000236347 0)
(1.00066 -7.07208e-05 0)
(1.00071 7.0538e-05 0)
(1.00082 0.000206022 0)
(1.00087 0.000292482 0)
(1.00088 0.000445528 0)
(1.00086 0.000600121 0)
(1.00092 0.000776443 0)
(1.00096 0.000982674 0)
(1.00104 0.00125072 0)
(1.00111 0.0015271 0)
(1.00119 0.00183629 0)
(1.00123 0.00216074 0)
(1.00124 0.0024972 0)
(1.00113 0.00281646 0)
(0.999991 -5.88998e-05 0)
(1.00004 -0.000142361 0)
(1.00024 -0.000292375 0)
(1.00031 -0.000379665 0)
(1.0004 -0.000260442 0)
(1.00054 -0.000135607 0)
(1.00071 -9.87679e-06 0)
(1.00076 0.000112079 0)
(1.00087 0.00024496 0)
(1.00092 0.000331999 0)
(1.00095 0.000488451 0)
(1.00094 0.000653468 0)
(1.00101 0.000842997 0)
(1.00108 0.00104734 0)
(1.00118 0.00131063 0)
(1.00127 0.00158197 0)
(1.00138 0.00187679 0)
(1.00144 0.00217734 0)
(1.00146 0.00248974 0)
(1.00136 0.00278505 0)
(0.999994 -6.34832e-05 0)
(1.00004 -0.000162405 0)
(1.00024 -0.0002975 0)
(1.00035 -0.000361115 0)
(1.00045 -0.00018712 0)
(1.00059 -6.04507e-05 0)
(1.00076 4.61397e-05 0)
(1.00082 0.000151805 0)
(1.00093 0.000287173 0)
(1.00099 0.00037812 0)
(1.00104 0.000536744 0)
(1.00104 0.000709322 0)
(1.00112 0.000909895 0)
(1.00121 0.00111251 0)
(1.00133 0.00136668 0)
(1.00145 0.00162684 0)
(1.00157 0.00190665 0)
(1.00165 0.00218478 0)
(1.00169 0.0024733 0)
(1.00159 0.00274578 0)
(0.999997 -6.17673e-05 0)
(1.00004 -0.000174362 0)
(1.00025 -0.000265554 0)
(1.00038 -0.000315361 0)
(1.00051 -0.000163115 0)
(1.00064 -1.99846e-05 0)
(1.00082 9.78569e-05 0)
(1.00088 0.000197683 0)
(1.00099 0.000334593 0)
(1.00106 0.000430576 0)
(1.00113 0.000588408 0)
(1.00114 0.000761569 0)
(1.00124 0.000968347 0)
(1.00135 0.00116815 0)
(1.0015 0.00141159 0)
(1.00162 0.00165956 0)
(1.00176 0.00192699 0)
(1.00186 0.00218751 0)
(1.00191 0.00245483 0)
(1.00182 0.00270583 0)
(0.999999 -5.83994e-05 0)
(1.00004 -0.000166146 0)
(1.00026 -0.000224036 0)
(1.00042 -0.000268059 0)
(1.00057 -0.000142816 0)
(1.00071 2.49033e-06 0)
(1.00088 0.000131727 0)
(1.00095 0.000235575 0)
(1.00106 0.0003784 0)
(1.00114 0.000481945 0)
(1.00122 0.000640175 0)
(1.00126 0.000811615 0)
(1.00137 0.00102232 0)
(1.00149 0.00121987 0)
(1.00166 0.00145281 0)
(1.00181 0.00168803 0)
(1.00197 0.00194231 0)
(1.00208 0.0021851 0)
(1.00214 0.00243073 0)
(1.00205 0.00265837 0)
(1 -5.40002e-05 0)
(1.00005 -0.000140628 0)
(1.00028 -0.000183303 0)
(1.00045 -0.000223962 0)
(1.00063 -0.000116039 0)
(1.00077 1.94124e-05 0)
(1.00094 0.000158623 0)
(1.00102 0.000270068 0)
(1.00114 0.000421286 0)
(1.00122 0.000532863 0)
(1.00132 0.000691487 0)
(1.00138 0.00085805 0)
(1.0015 0.00106769 0)
(1.00164 0.00126181 0)
(1.00183 0.00148478 0)
(1.002 0.00170634 0)
(1.00217 0.00194594 0)
(1.00229 0.00217134 0)
(1.00236 0.00239707 0)
(1.00228 0.00260352 0)
(1 -4.59502e-05 0)
(1.00006 -0.00011696 0)
(1.00029 -0.000142933 0)
(1.00049 -0.000178985 0)
(1.00069 -8.83934e-05 0)
(1.00084 3.87441e-05 0)
(1.00101 0.00018438 0)
(1.00109 0.000301461 0)
(1.00122 0.000459483 0)
(1.00131 0.000578074 0)
(1.00143 0.00073846 0)
(1.0015 0.000900101 0)
(1.00164 0.00110633 0)
(1.00179 0.00129581 0)
(1.002 0.00150936 0)
(1.00219 0.00171587 0)
(1.00237 0.00193919 0)
(1.0025 0.00214746 0)
(1.00258 0.00235533 0)
(1.0025 0.00254318 0)
(1.00001 -3.67277e-05 0)
(1.00006 -9.51555e-05 0)
(1.0003 -0.000105123 0)
(1.00051 -0.00013525 0)
(1.00075 -5.65485e-05 0)
(1.00091 6.20679e-05 0)
(1.00108 0.000210795 0)
(1.00117 0.000330343 0)
(1.0013 0.000494001 0)
(1.0014 0.000618914 0)
(1.00153 0.000781644 0)
(1.00163 0.000938872 0)
(1.00178 0.00113896 0)
(1.00195 0.00132188 0)
(1.00217 0.0015246 0)
(1.00237 0.00171573 0)
(1.00257 0.00192186 0)
(1.00271 0.00211381 0)
(1.00279 0.00230502 0)
(1.00271 0.00247654 0)
(1.00001 -2.75864e-05 0)
(1.00007 -7.46892e-05 0)
(1.00031 -7.11047e-05 0)
(1.00054 -9.00908e-05 0)
(1.0008 -1.97305e-05 0)
(1.00097 8.75047e-05 0)
(1.00115 0.000236792 0)
(1.00125 0.000358543 0)
(1.00139 0.000523752 0)
(1.00149 0.000654155 0)
(1.00164 0.000817734 0)
(1.00175 0.00097078 0)
(1.00192 0.00116323 0)
(1.0021 0.00133883 0)
(1.00234 0.00153066 0)
(1.00256 0.0017075 0)
(1.00277 0.00189709 0)
(1.00292 0.00207279 0)
(1.003 0.00224808 0)
(1.00292 0.00240378 0)
(1.00001 -1.78942e-05 0)
(1.00007 -5.64304e-05 0)
(1.00033 -4.0412e-05 0)
(1.00056 -4.70271e-05 0)
(1.00085 1.96555e-05 0)
(1.00104 0.000116318 0)
(1.00123 0.000262894 0)
(1.00134 0.000386307 0)
(1.00148 0.000551307 0)
(1.00159 0.000683046 0)
(1.00175 0.0008466 0)
(1.00188 0.000994026 0)
(1.00207 0.00117845 0)
(1.00226 0.00134518 0)
(1.00251 0.00152605 0)
(1.00273 0.00168911 0)
(1.00296 0.00186272 0)
(1.00312 0.0020222 0)
(1.0032 0.00218225 0)
(1.00312 0.00232303 0)
(1.00001 -9.41154e-06 0)
(1.00008 -3.77935e-05 0)
(1.00034 -1.14369e-05 0)
(1.00059 -6.80166e-06 0)
(1.00089 6.1024e-05 0)
(1.0011 0.000148604 0)
(1.0013 0.000288497 0)
(1.00142 0.000409934 0)
(1.00157 0.000574492 0)
(1.00169 0.000705229 0)
(1.00186 0.000867309 0)
(1.00201 0.00100942 0)
(1.00221 0.00118463 0)
(1.00242 0.00134152 0)
(1.00267 0.00151046 0)
(1.00291 0.00166019 0)
(1.00314 0.00181819 0)
(1.00331 0.0019619 0)
(1.0034 0.0021074 0)
(1.00332 0.00223457 0)
(1.00001 -1.87449e-06 0)
(1.00009 -1.94851e-05 0)
(1.00036 1.49029e-05 0)
(1.00061 2.91636e-05 0)
(1.00094 9.95039e-05 0)
(1.00117 0.000181687 0)
(1.00138 0.000314478 0)
(1.00151 0.00043139 0)
(1.00167 0.000592712 0)
(1.00179 0.000720984 0)
(1.00198 0.000878547 0)
(1.00214 0.00101452 0)
(1.00236 0.00118005 0)
(1.00257 0.00132688 0)
(1.00283 0.0014846 0)
(1.00307 0.00162161 0)
(1.00332 0.00176544 0)
(1.00349 0.00189378 0)
(1.00358 0.00202507 0)
(1.0035 0.00213926 0)
(1.00001 4.90109e-06 0)
(1.00009 -2.18661e-06 0)
(1.00037 3.85307e-05 0)
(1.00064 6.0481e-05 0)
(1.00098 0.000133989 0)
(1.00123 0.000211064 0)
(1.00145 0.000338066 0)
(1.0016 0.000450272 0)
(1.00176 0.000605967 0)
(1.0019 0.000730973 0)
(1.00209 0.000881672 0)
(1.00227 0.00100979 0)
(1.0025 0.00116391 0)
(1.00271 0.00130013 0)
(1.00298 0.00144648 0)
(1.00323 0.00157179 0)
(1.00348 0.00170253 0)
(1.00366 0.00181707 0)
(1.00376 0.00193445 0)
(1.00368 0.00203657 0)
(1.00001 1.06719e-05 0)
(1.0001 1.31785e-05 0)
(1.00038 5.99921e-05 0)
(1.00067 8.77828e-05 0)
(1.00102 0.000165767 0)
(1.00128 0.000237454 0)
(1.00152 0.00035701 0)
(1.00168 0.000463033 0)
(1.00186 0.000611609 0)
(1.002 0.000732637 0)
(1.0022 0.000876583 0)
(1.00239 0.00099687 0)
(1.00263 0.00113864 0)
(1.00286 0.00126292 0)
(1.00313 0.00139735 0)
(1.00339 0.00151089 0)
(1.00364 0.00162922 0)
(1.00382 0.00173108 0)
(1.00392 0.0018354 0)
(1.00385 0.00192571 0)
(1.00001 1.52439e-05 0)
(1.0001 2.76123e-05 0)
(1.0004 7.98744e-05 0)
(1.00069 0.000109475 0)
(1.00106 0.000189784 0)
(1.00134 0.000259251 0)
(1.00159 0.000373348 0)
(1.00176 0.000472586 0)
(1.00195 0.000610392 0)
(1.0021 0.000725529 0)
(1.00231 0.000860332 0)
(1.00251 0.000973683 0)
(1.00276 0.0011029 0)
(1.003 0.00121538 0)
(1.00328 0.00133754 0)
(1.00353 0.00144008 0)
(1.00379 0.0015468 0)
(1.00397 0.00163715 0)
(1.00408 0.00172987 0)
(1.004 0.00180863 0)
(1.00001 1.98231e-05 0)
(1.00011 3.90568e-05 0)
(1.00041 9.46671e-05 0)
(1.00072 0.000128037 0)
(1.0011 0.000209145 0)
(1.00139 0.000273563 0)
(1.00165 0.000383453 0)
(1.00184 0.000476616 0)
(1.00205 0.000602289 0)
(1.0022 0.000709577 0)
(1.00242 0.000833963 0)
(1.00262 0.000938802 0)
(1.00288 0.00105654 0)
(1.00313 0.00115655 0)
(1.00341 0.00126671 0)
(1.00367 0.00135788 0)
(1.00393 0.0014541 0)
(1.00411 0.00153321 0)
(1.00422 0.00161607 0)
(1.00414 0.00168387 0)
(1.00001 2.27698e-05 0)
(1.00011 4.89771e-05 0)
(1.00042 0.000106561 0)
(1.00074 0.000140945 0)
(1.00113 0.000222863 0)
(1.00143 0.000281929 0)
(1.00172 0.000383723 0)
(1.00192 0.00047202 0)
(1.00213 0.000585421 0)
(1.0023 0.00068447 0)
(1.00252 0.000797674 0)
(1.00273 0.00089316 0)
(1.003 0.000999331 0)
(1.00325 0.00108804 0)
(1.00354 0.00118572 0)
(1.00379 0.00126613 0)
(1.00405 0.00135169 0)
(1.00424 0.00142056 0)
(1.00434 0.00149378 0)
(1.00427 0.00155207 0)
(1.00001 2.49948e-05 0)
(1.00012 5.5383e-05 0)
(1.00043 0.000115735 0)
(1.00076 0.000148616 0)
(1.00117 0.000226987 0)
(1.00148 0.000283615 0)
(1.00177 0.000375508 0)
(1.00198 0.000457379 0)
(1.00221 0.000558306 0)
(1.00239 0.000648548 0)
(1.00262 0.000750195 0)
(1.00283 0.000836164 0)
(1.0031 0.000930633 0)
(1.00336 0.00100868 0)
(1.00365 0.0010946 0)
(1.00391 0.0011642 0)
(1.00417 0.00123982 0)
(1.00436 0.00129876 0)
(1.00446 0.0013631 0)
(1.00439 0.00141245 0)
(1.00001 2.7076e-05 0)
(1.00012 5.76127e-05 0)
(1.00044 0.000117386 0)
(1.00078 0.000152853 0)
(1.0012 0.0002243 0)
(1.00152 0.000274897 0)
(1.00183 0.000359669 0)
(1.00205 0.000432369 0)
(1.00228 0.000521368 0)
(1.00247 0.000600507 0)
(1.0027 0.000690988 0)
(1.00292 0.00076642 0)
(1.0032 0.00084978 0)
(1.00346 0.00091697 0)
(1.00375 0.000992283 0)
(1.00402 0.00105147 0)
(1.00428 0.00111774 0)
(1.00446 0.00116778 0)
(1.00457 0.00122375 0)
(1.00449 0.00126548 0)
(1.00001 2.64821e-05 0)
(1.00013 5.94858e-05 0)
(1.00045 0.00011453 0)
(1.0008 0.000148194 0)
(1.00122 0.000214496 0)
(1.00155 0.000257214 0)
(1.00188 0.000330532 0)
(1.0021 0.000397328 0)
(1.00235 0.000472207 0)
(1.00254 0.000541927 0)
(1.00278 0.000619707 0)
(1.00301 0.000685517 0)
(1.00328 0.000757601 0)
(1.00355 0.000814407 0)
(1.00384 0.000879367 0)
(1.00411 0.000928569 0)
(1.00437 0.000985699 0)
(1.00456 0.00102717 0)
(1.00466 0.00107532 0)
(1.00458 0.00110979 0)
(1.00001 2.61505e-05 0)
(1.00013 5.5778e-05 0)
(1.00046 0.000109661 0)
(1.00082 0.000135768 0)
(1.00125 0.000195263 0)
(1.00158 0.000231452 0)
(1.00192 0.000292929 0)
(1.00215 0.000349327 0)
(1.0024 0.00041382 0)
(1.0026 0.000469928 0)
(1.00285 0.000536611 0)
(1.00308 0.00058964 0)
(1.00336 0.000651898 0)
(1.00362 0.000696742 0)
(1.00392 0.000752681 0)
(1.00419 0.00079136 0)
(1.00445 0.000840272 0)
(1.00464 0.000872923 0)
(1.00473 0.000913887 0)
(1.00466 0.000941117 0)
(1.00001 2.29232e-05 0)
(1.00014 4.90786e-05 0)
(1.00046 9.42081e-05 0)
(1.00083 0.000118332 0)
(1.00127 0.00016464 0)
(1.0016 0.000195001 0)
(1.00196 0.00024403 0)
(1.00219 0.000289245 0)
(1.00245 0.000340287 0)
(1.00266 0.000384703 0)
(1.00291 0.000436567 0)
(1.00314 0.000478305 0)
(1.00342 0.000526996 0)
(1.00369 0.000561631 0)
(1.00398 0.000605252 0)
(1.00426 0.000635036 0)
(1.00451 0.000673025 0)
(1.0047 0.0006982 0)
(1.0048 0.000729764 0)
(1.00472 0.000750864 0)
(1.00001 2.05226e-05 0)
(1.00014 4.01405e-05 0)
(1.00046 7.91865e-05 0)
(1.00084 9.69746e-05 0)
(1.00128 0.000139571 0)
(1.00162 0.000161276 0)
(1.00198 0.000202755 0)
(1.00222 0.000239079 0)
(1.00248 0.000281984 0)
(1.0027 0.000317292 0)
(1.00295 0.000362251 0)
(1.00319 0.000394812 0)
(1.00347 0.000437465 0)
(1.00374 0.000464494 0)
(1.00403 0.000502039 0)
(1.00431 0.000525746 0)
(1.00456 0.000557987 0)
(1.00475 0.000578671 0)
(1.00485 0.000605336 0)
(1.00477 0.000623219 0)
(1.00001 1.10341e-05 0)
(1.00014 1.65561e-05 0)
(1.00047 3.86811e-05 0)
(1.00085 4.32354e-05 0)
(1.0013 6.63934e-05 0)
(1.00164 7.36296e-05 0)
(1.00201 9.55241e-05 0)
(1.00226 0.000110508 0)
(1.00252 0.000133367 0)
(1.00274 0.000147832 0)
(1.003 0.000171867 0)
(1.00324 0.000185523 0)
(1.00352 0.000208109 0)
(1.00379 0.000219994 0)
(1.00409 0.000239492 0)
(1.00436 0.000250445 0)
(1.00462 0.000266927 0)
(1.00481 0.000276906 0)
(1.0049 0.0002905 0)
(1.00482 0.000299409 0)
(0.984045 0.0020454 0)
(0.959992 0.0032931 0)
(0.935747 0.00366028 0)
(0.911018 0.0036181 0)
(0.885793 0.00353158 0)
(0.860135 0.00350327 0)
(0.834102 0.00350734 0)
(0.807713 0.00350656 0)
(0.78095 0.00348821 0)
(0.75378 0.00345638 0)
(0.72615 0.00342197 0)
(0.69799 0.00338665 0)
(0.66932 0.00334761 0)
(0.640153 0.00329995 0)
(0.610549 0.00324945 0)
(0.580437 0.00319345 0)
(0.549903 0.003125 0)
(0.518963 0.00304796 0)
(0.487725 0.00295611 0)
(0.456302 0.00284669 0)
(0.42487 0.00271979 0)
(0.393627 0.0025554 0)
(0.363102 0.00233871 0)
(0.333837 0.00205241 0)
(0.306623 0.00165136 0)
(0.282431 0.00115514 0)
(0.262206 0.000567063 0)
(0.246683 5.39511e-05 0)
(0.235638 -0.000288347 0)
(0.228019 -0.000452907 0)
(0.222623 -0.000506578 0)
(0.218713 -0.000483638 0)
(0.215695 -0.000448268 0)
(0.213198 -0.000400569 0)
(0.210972 -0.000344919 0)
(0.208829 -0.000287553 0)
(0.206614 -0.000234507 0)
(0.20428 -0.000188313 0)
(0.201807 -0.000149749 0)
(0.199211 -0.000117302 0)
(0.196509 -9.07477e-05 0)
(0.193724 -6.93657e-05 0)
(0.190893 -5.25136e-05 0)
(0.188041 -3.87633e-05 0)
(0.185197 -2.74075e-05 0)
(0.182366 -1.85001e-05 0)
(0.179567 -1.08289e-05 0)
(0.176805 -4.87319e-06 0)
(0.174097 6.00314e-07 0)
(0.171446 4.83716e-06 0)
(0.168856 9.11083e-06 0)
(0.166327 1.21073e-05 0)
(0.163858 1.50482e-05 0)
(0.161449 1.71506e-05 0)
(0.159103 1.88822e-05 0)
(0.156811 2.03043e-05 0)
(0.154585 2.13778e-05 0)
(0.152405 2.21975e-05 0)
(0.150296 2.23427e-05 0)
(0.148225 2.25628e-05 0)
(0.146233 2.23389e-05 0)
(0.144268 2.20309e-05 0)
(0.142391 2.15183e-05 0)
(0.140534 2.06932e-05 0)
(0.138764 2.05809e-05 0)
(0.136996 1.97459e-05 0)
(0.135308 1.96016e-05 0)
(0.133607 1.86921e-05 0)
(0.131992 1.81504e-05 0)
(0.130354 1.72294e-05 0)
(0.128821 1.62631e-05 0)
(0.12725 1.58133e-05 0)
(0.125804 1.47437e-05 0)
(0.124289 1.45313e-05 0)
(0.122913 1.38293e-05 0)
(0.12143 1.32226e-05 0)
(0.120107 1.30879e-05 0)
(0.118658 1.1917e-05 0)
(0.117404 1.20686e-05 0)
(0.116 1.08223e-05 0)
(0.114821 1.08698e-05 0)
(0.113448 1.02841e-05 0)
(0.112336 9.82828e-06 0)
(0.110974 9.83015e-06 0)
(0.109936 9.03981e-06 0)
(0.108592 8.87218e-06 0)
(0.107647 8.41808e-06 0)
(0.106314 7.89222e-06 0)
(0.105469 7.807e-06 0)
(0.104135 7.3226e-06 0)
(0.103397 7.17401e-06 0)
(0.102056 6.59262e-06 0)
(0.101445 6.55219e-06 0)
(0.100077 6.14783e-06 0)
(0.0996088 6.00954e-06 0)
(0.0981947 5.60918e-06 0)
(0.097898 5.54654e-06 0)
(0.0963819 5.78046e-06 0)
(0.0962787 5.95571e-06 0)
(0.0944901 8.44375e-06 0)
(0.996598 0.0039671 0)
(0.995731 0.00589306 0)
(0.994533 0.00656939 0)
(0.992946 0.0065169 0)
(0.990846 0.00634562 0)
(0.988165 0.0062899 0)
(0.984921 0.00633374 0)
(0.981091 0.00640428 0)
(0.97667 0.00646219 0)
(0.971577 0.0065051 0)
(0.965778 0.00654676 0)
(0.959154 0.00659343 0)
(0.951722 0.00664097 0)
(0.943408 0.00668551 0)
(0.934242 0.0067284 0)
(0.924114 0.00677293 0)
(0.913034 0.00680936 0)
(0.900939 0.00683519 0)
(0.887838 0.00684643 0)
(0.873701 0.00683187 0)
(0.858574 0.00678543 0)
(0.842451 0.0066852 0)
(0.825547 0.00650967 0)
(0.808054 0.00623076 0)
(0.790318 0.00578681 0)
(0.772804 0.00516936 0)
(0.756035 0.00438537 0)
(0.740553 0.00354124 0)
(0.726543 0.00275817 0)
(0.713846 0.00213783 0)
(0.702082 0.00169914 0)
(0.691021 0.00140331 0)
(0.680459 0.00119939 0)
(0.670265 0.00104662 0)
(0.660356 0.000938649 0)
(0.650672 0.000871881 0)
(0.641118 0.000832155 0)
(0.631653 0.000805312 0)
(0.62228 0.000782253 0)
(0.612959 0.000761393 0)
(0.603724 0.000741028 0)
(0.594532 0.000719401 0)
(0.585452 0.000694353 0)
(0.576441 0.000666899 0)
(0.567587 0.000640068 0)
(0.558829 0.000612489 0)
(0.550244 0.000586016 0)
(0.541773 0.000557811 0)
(0.533498 0.000530813 0)
(0.525367 0.00050258 0)
(0.517446 0.000477953 0)
(0.509689 0.000452696 0)
(0.502143 0.000430093 0)
(0.494758 0.00040792 0)
(0.487595 0.000387587 0)
(0.48057 0.000368021 0)
(0.47378 0.000349799 0)
(0.467102 0.000332578 0)
(0.460682 0.00031611 0)
(0.454335 0.000300838 0)
(0.448268 0.000286321 0)
(0.442237 0.000272235 0)
(0.436512 0.000259517 0)
(0.430787 0.000246267 0)
(0.425372 0.000236737 0)
(0.41992 0.000225718 0)
(0.41477 0.000218211 0)
(0.409543 0.000208826 0)
(0.404632 0.000201843 0)
(0.399599 0.000193323 0)
(0.394927 0.000185434 0)
(0.390069 0.000178079 0)
(0.385649 0.000170542 0)
(0.380943 0.000164766 0)
(0.376754 0.000159639 0)
(0.372161 0.000153883 0)
(0.36816 0.00015045 0)
(0.36367 0.000142505 0)
(0.359862 0.000139527 0)
(0.355497 0.000131508 0)
(0.351905 0.000128831 0)
(0.347632 0.000123024 0)
(0.344254 0.000119764 0)
(0.340021 0.000115388 0)
(0.336883 0.000110918 0)
(0.332677 0.00010599 0)
(0.329825 0.00010287 0)
(0.325639 9.69094e-05 0)
(0.323082 9.49851e-05 0)
(0.318889 8.91177e-05 0)
(0.316669 8.73462e-05 0)
(0.31244 8.10023e-05 0)
(0.310605 7.98978e-05 0)
(0.306291 7.38851e-05 0)
(0.304908 7.2908e-05 0)
(0.300449 6.65372e-05 0)
(0.299593 6.699e-05 0)
(0.294881 6.16589e-05 0)
(0.294628 6.38012e-05 0)
(0.289452 7.00552e-05 0)
(0.997075 0.00349631 0)
(0.996604 0.0047497 0)
(0.996324 0.00545226 0)
(0.996245 0.00557858 0)
(0.996264 0.00549622 0)
(0.996262 0.00546404 0)
(0.996245 0.00554637 0)
(0.996184 0.00569432 0)
(0.996099 0.00585887 0)
(0.995906 0.00601835 0)
(0.995592 0.00618193 0)
(0.99505 0.00635193 0)
(0.994307 0.00652591 0)
(0.993299 0.00669996 0)
(0.992057 0.00687316 0)
(0.990486 0.00705062 0)
(0.988603 0.00722083 0)
(0.986327 0.00737757 0)
(0.983679 0.00752067 0)
(0.980571 0.00763208 0)
(0.977034 0.00770938 0)
(0.97297 0.00772412 0)
(0.968466 0.00764857 0)
(0.96347 0.00744625 0)
(0.958105 0.00706372 0)
(0.952399 0.00647055 0)
(0.946565 0.00568933 0)
(0.940706 0.00479444 0)
(0.934991 0.00392411 0)
(0.929381 0.00321543 0)
(0.92388 0.00272909 0)
(0.918376 0.00241664 0)
(0.912915 0.00222597 0)
(0.907389 0.00209794 0)
(0.90187 0.00201614 0)
(0.896246 0.00197261 0)
(0.890589 0.00195479 0)
(0.884749 0.0019445 0)
(0.878866 0.00193249 0)
(0.872753 0.0019175 0)
(0.866607 0.00189933 0)
(0.860204 0.00187505 0)
(0.853793 0.00184347 0)
(0.847116 0.00180485 0)
(0.840462 0.00176339 0)
(0.833554 0.00171781 0)
(0.826692 0.00167229 0)
(0.819587 0.0016216 0)
(0.812549 0.00157087 0)
(0.805298 0.00151597 0)
(0.798127 0.00146402 0)
(0.790774 0.001409 0)
(0.783525 0.0013575 0)
(0.776093 0.00130405 0)
(0.768817 0.00125419 0)
(0.761334 0.00120388 0)
(0.754059 0.00115646 0)
(0.74655 0.00110869 0)
(0.739314 0.00106317 0)
(0.731802 0.00101835 0)
(0.724645 0.000976131 0)
(0.717158 0.000933146 0)
(0.710114 0.000893698 0)
(0.702699 0.0008531 0)
(0.695776 0.000819738 0)
(0.68845 0.000783737 0)
(0.68165 0.000755366 0)
(0.674405 0.000723338 0)
(0.667741 0.000697561 0)
(0.660573 0.000668153 0)
(0.654086 0.000642816 0)
(0.646984 0.000615919 0)
(0.640729 0.00059197 0)
(0.633684 0.00056855 0)
(0.627673 0.000549668 0)
(0.620676 0.000528225 0)
(0.614881 0.000513708 0)
(0.607951 0.000490087 0)
(0.602373 0.000476695 0)
(0.595541 0.000452597 0)
(0.590213 0.000440909 0)
(0.583452 0.000420961 0)
(0.578405 0.000409856 0)
(0.571637 0.000392476 0)
(0.566947 0.000380597 0)
(0.560129 0.000361754 0)
(0.555849 0.000352047 0)
(0.548994 0.000332516 0)
(0.545138 0.000325531 0)
(0.538202 0.000305333 0)
(0.534844 0.000299501 0)
(0.527796 0.000278465 0)
(0.525004 0.000274747 0)
(0.517772 0.000253205 0)
(0.515651 0.000250871 0)
(0.508178 0.0002284 0)
(0.506811 0.000229112 0)
(0.498987 0.000208793 0)
(0.49848 0.000211257 0)
(0.490133 0.000214823 0)
(0.997621 0.00349038 0)
(0.997085 0.00450736 0)
(0.996725 0.00524967 0)
(0.996585 0.00560167 0)
(0.996668 0.00567858 0)
(0.996796 0.00569668 0)
(0.997018 0.00576555 0)
(0.997242 0.00589229 0)
(0.997567 0.00604639 0)
(0.997868 0.00620769 0)
(0.998222 0.00637621 0)
(0.998472 0.00655231 0)
(0.998745 0.0067284 0)
(0.998918 0.0069076 0)
(0.999139 0.00708523 0)
(0.999242 0.00727125 0)
(0.999382 0.00745024 0)
(0.999385 0.00762349 0)
(0.999429 0.00778323 0)
(0.999316 0.00791571 0)
(0.999234 0.00801024 0)
(0.99895 0.00804605 0)
(0.998685 0.00797754 0)
(0.998176 0.00777609 0)
(0.99764 0.00739912 0)
(0.996789 0.00682796 0)
(0.995875 0.00608047 0)
(0.994619 0.00522497 0)
(0.993311 0.00438368 0)
(0.991681 0.00368327 0)
(0.990059 0.00318821 0)
(0.988171 0.00287234 0)
(0.986389 0.00268378 0)
(0.984387 0.00256743 0)
(0.98255 0.00249722 0)
(0.980474 0.00245568 0)
(0.978585 0.00243578 0)
(0.976391 0.00242155 0)
(0.974392 0.00240846 0)
(0.972015 0.00239333 0)
(0.969853 0.00237845 0)
(0.967258 0.00235837 0)
(0.9649 0.00233268 0)
(0.962055 0.00229968 0)
(0.95947 0.00226598 0)
(0.956372 0.00222719 0)
(0.953548 0.00219021 0)
(0.950194 0.00214728 0)
(0.947123 0.00210453 0)
(0.943517 0.00205603 0)
(0.940202 0.00201195 0)
(0.936349 0.00196195 0)
(0.932809 0.00191726 0)
(0.928699 0.00186745 0)
(0.924958 0.0018225 0)
(0.920588 0.00177437 0)
(0.91666 0.00173043 0)
(0.912025 0.00168303 0)
(0.907935 0.00163953 0)
(0.903032 0.00159275 0)
(0.898794 0.0015508 0)
(0.893637 0.00150379 0)
(0.88926 0.00146191 0)
(0.883888 0.00141503 0)
(0.87937 0.00137818 0)
(0.873811 0.00133479 0)
(0.86916 0.00130208 0)
(0.863412 0.00126186 0)
(0.85865 0.00123087 0)
(0.852694 0.00119174 0)
(0.847884 0.00116039 0)
(0.841686 0.00112204 0)
(0.836898 0.00109134 0)
(0.830446 0.00105536 0)
(0.825699 0.00102981 0)
(0.819016 0.000995616 0)
(0.814276 0.000974461 0)
(0.807423 0.000937309 0)
(0.802677 0.000916536 0)
(0.7957 0.000877951 0)
(0.791001 0.000858658 0)
(0.783861 0.000824102 0)
(0.779309 0.00080705 0)
(0.771912 0.000773945 0)
(0.767622 0.000756697 0)
(0.759943 0.000721613 0)
(0.755963 0.000706346 0)
(0.748038 0.000669905 0)
(0.744395 0.000659171 0)
(0.736202 0.000621046 0)
(0.732969 0.00061163 0)
(0.724495 0.000571806 0)
(0.72176 0.000566022 0)
(0.712948 0.000524668 0)
(0.71083 0.000520418 0)
(0.701646 0.000477926 0)
(0.700242 0.000477927 0)
(0.690605 0.000438623 0)
(0.690024 0.000438986 0)
(0.679816 0.000430868 0)
(0.998021 0.00363625 0)
(0.997417 0.0044798 0)
(0.997025 0.00517317 0)
(0.996764 0.00560207 0)
(0.996841 0.00576296 0)
(0.996921 0.00580697 0)
(0.997205 0.00584576 0)
(0.997406 0.00591868 0)
(0.997807 0.00602887 0)
(0.998093 0.00616399 0)