/*--------------------------------*- C++ -*----------------------------------*\
| =========                 |                                                 |
| \\      /  F ield         | OpenFOAM: The Open Source CFD Toolbox           |
|  \\    /   O peration     | Version:  v2106                                 |
|   \\  /    A nd           | Website:  www.openfoam.com                      |
|    \\/     M anipulation  |                                                 |
\*---------------------------------------------------------------------------*/
FoamFile
{
    version     2.0;
    format      ascii;
    arch        "LSB;label=32;scalar=64";
    class       volScalarField;
    location    "1.1";
    object      p;
}
// * * * * * * * * * * * * * * * * * * * * * * * * * * * * * * * * * * * * * //

dimensions      [0 2 -2 0 0 0 0];

internalField   nonuniform List<scalar> 
4800
(
1.91942e-10
-0.000111625
-0.000240165
-0.000307566
-0.000438609
-0.000500863
-0.00057604
-0.000628125
-0.000624949
-0.000615055
-0.000606315
-0.000566184
-0.000473924
-0.000332927
-0.000153954
0.000117164
0.000481901
0.000986687
0.00162314
0.00233744
4.17325e-06
-0.000115525
-0.000238188
-0.000309579
-0.000430072
-0.000502604
-0.000567348
-0.000629918
-0.000621726
-0.000615388
-0.000597661
-0.000567149
-0.000468513
-0.000336005
-0.000147134
0.000110339
0.000491867
0.000935622
0.00141303
0.00194484
6.08694e-06
-0.00011762
-0.000237252
-0.000310075
-0.00042827
-0.000503127
-0.000564364
-0.000629759
-0.00062118
-0.000613331
-0.00059616
-0.000565214
-0.000466446
-0.000336886
-0.000149561
9.38561e-05
0.000436932
0.00081967
0.00120725
0.00165756
9.65582e-06
-0.000120273
-0.000235803
-0.000310637
-0.000423207
-0.000502438
-0.000561543
-0.000626326
-0.000623535
-0.000608415
-0.00059455
-0.000559832
-0.0004624
-0.000335228
-0.000159991
7.15755e-05
0.000373763
0.000683242
0.00100009
0.00140951
1.30569e-05
-0.000122176
-0.000235671
-0.000309929
-0.000421428
-0.000500073
-0.000561447
-0.000622251
-0.000624691
-0.000604308
-0.000589303
-0.000554071
-0.000460408
-0.000338468
-0.000180008
2.54864e-05
0.000270348
0.000507618
0.000800949
0.00118462
1.6368e-05
-0.000122892
-0.000236189
-0.00030784
-0.000420533
-0.000495646
-0.000560065
-0.000620158
-0.000620778
-0.000599921
-0.000583358
-0.000549438
-0.000460513
-0.000349517
-0.00021036
-5.07459e-05
0.000114289
0.000342668
0.000624146
0.000981121
1.93381e-05
-0.000121409
-0.000238283
-0.000304731
-0.000420725
-0.000492525
-0.000555714
-0.000617871
-0.000617041
-0.000594047
-0.000578506
-0.00054565
-0.000465585
-0.000372275
-0.000277696
-0.000184143
-2.08001e-05
0.000202543
0.000462687
0.000784849
2.16892e-05
-0.000117545
-0.000240847
-0.000302765
-0.000417967
-0.000492402
-0.000549912
-0.000610454
-0.000612905
-0.000589248
-0.00057442
-0.000546251
-0.00048057
-0.000428952
-0.000395031
-0.000292695
-0.000126899
7.25694e-05
0.000297923
0.00058481
2.30364e-05
-0.000110496
-0.000242077
-0.000304465
-0.000411706
-0.000490253
-0.000545651
-0.000600969
-0.000606802
-0.000586483
-0.00057537
-0.000561212
-0.000526889
-0.000522829
-0.000483142
-0.00037558
-0.000228879
-6.5024e-05
0.000124139
0.000379348
2.40521e-05
-0.000103702
-0.000240032
-0.000307412
-0.000406876
-0.00048301
-0.000540954
-0.000593426
-0.000599786
-0.000586344
-0.000586343
-0.000601143
-0.000615468
-0.000596311
-0.000545452
-0.000455561
-0.000339473
-0.000211582
-5.7611e-05
0.000169987
2.44523e-05
-9.70289e-05
-0.000233897
-0.000306929
-0.000405506
-0.000475285
-0.000531001
-0.000587838
-0.000597664
-0.000592667
-0.000623404
-0.000679403
-0.000681153
-0.000648389
-0.00060867
-0.000545158
-0.000460476
-0.000366581
-0.000244827
-4.1759e-05
2.42756e-05
-8.99851e-05
-0.000225134
-0.000301033
-0.000405041
-0.00047218
-0.000517583
-0.000581401
-0.000607633
-0.000623326
-0.000681077
-0.000731196
-0.000729682
-0.000704571
-0.000681792
-0.00064578
-0.000591917
-0.000528658
-0.000435587
-0.000254378
2.42272e-05
-8.32235e-05
-0.000215836
-0.000289269
-0.000396751
-0.000475297
-0.000513355
-0.000575137
-0.000632443
-0.000682888
-0.00073236
-0.000771256
-0.000777678
-0.000767914
-0.000764888
-0.000755706
-0.000731091
-0.000695772
-0.00062841
-0.000466124
2.42145e-05
-7.46164e-05
-0.000206941
-0.000275977
-0.000378707
-0.000477131
-0.000527014
-0.000590444
-0.000664395
-0.000727334
-0.000777378
-0.000816382
-0.000833082
-0.000839422
-0.000856209
-0.000873042
-0.000876858
-0.000867563
-0.000822278
-0.000676635
2.47518e-05
-6.42723e-05
-0.000196512
-0.000266144
-0.00035601
-0.000470533
-0.000554612
-0.000637952
-0.00070145
-0.000756472
-0.00081568
-0.000865329
-0.00089615
-0.000918932
-0.000955188
-0.000997209
-0.00102841
-0.00104353
-0.00101751
-0.00088615
2.54017e-05
-5.31835e-05
-0.000180066
-0.000260155
-0.000343236
-0.000463799
-0.000579077
-0.000685703
-0.00075483
-0.000797316
-0.000852321
-0.000913742
-0.000963181
-0.00100506
-0.00106114
-0.00112735
-0.00118489
-0.0012226
-0.00121338
-0.00109392
2.92326e-05
-4.29457e-05
-0.000160848
-0.000251792
-0.000344826
-0.000468984
-0.000598921
-0.000725565
-0.000808431
-0.000851143
-0.000899341
-0.000965937
-0.00103425
-0.00109772
-0.00117403
-0.00126294
-0.00134544
-0.00140396
-0.00140962
-0.00130013
3.64231e-05
-3.18152e-05
-0.000144872
-0.000240109
-0.000351855
-0.000490382
-0.000623277
-0.000755492
-0.000855495
-0.000910512
-0.000958886
-0.00102748
-0.00111165
-0.00119711
-0.00129406
-0.00140387
-0.00150883
-0.00158693
-0.00160621
-0.00150542
4.62552e-05
-1.77228e-05
-0.000132001
-0.000235096
-0.000359212
-0.000518428
-0.000660032
-0.000787389
-0.000894357
-0.000967487
-0.00102535
-0.00109921
-0.00119644
-0.00130313
-0.00142104
-0.00155039
-0.00167509
-0.0017712
-0.00180301
-0.00170967
5.83313e-05
-3.58948e-07
-0.000120196
-0.000239977
-0.000371891
-0.000545009
-0.000702308
-0.000829315
-0.000935769
-0.00102168
-0.00109478
-0.00117841
-0.00128918
-0.00141538
-0.00155342
-0.00170155
-0.00184431
-0.00195667
-0.00199981
-0.00191262
7.29876e-05
1.79291e-05
-0.000109458
-0.000252752
-0.000396033
-0.000570238
-0.000739817
-0.000875978
-0.000984096
-0.00107894
-0.00116695
-0.00126385
-0.00138891
-0.00153386
-0.00169088
-0.00185673
-0.00201604
-0.00214269
-0.00219593
-0.00211388
9.00767e-05
3.50776e-05
-0.000100686
-0.00026795
-0.000429637
-0.000602487
-0.000775646
-0.000922343
-0.00103856
-0.00114224
-0.00124369
-0.0013553
-0.00149521
-0.00165762
-0.00183303
-0.00201537
-0.00218934
-0.00232861
-0.00239083
-0.00231321
0.000108343
5.07229e-05
-9.5491e-05
-0.000284245
-0.00046637
-0.000643484
-0.000816178
-0.00096889
-0.00109558
-0.00121154
-0.00132626
-0.00145214
-0.00160713
-0.00178598
-0.00197896
-0.00217645
-0.00236332
-0.00251379
-0.00258386
-0.00250989
0.000126858
6.44821e-05
-9.45619e-05
-0.000301759
-0.000504035
-0.000689371
-0.000862957
-0.00102028
-0.00115571
-0.00128482
-0.00141515
-0.00155473
-0.00172383
-0.00191839
-0.00212755
-0.00233971
-0.00253789
-0.00269773
-0.00277471
-0.00270354
0.000144174
7.5524e-05
-9.63877e-05
-0.000320592
-0.000542085
-0.000739094
-0.000916102
-0.00107748
-0.00122097
-0.00136181
-0.00150872
-0.00166287
-0.00184552
-0.00205496
-0.00227813
-0.00250374
-0.00271195
-0.00287961
-0.00296246
-0.0028938
0.00015908
8.37786e-05
-0.000100948
-0.000341023
-0.000580653
-0.000791271
-0.000974238
-0.00114056
-0.00129235
-0.00144377
-0.00160601
-0.00177605
-0.00197099
-0.00219432
-0.00243047
-0.0026677
-0.00288536
-0.0030592
-0.00314637
-0.00307976
0.000170648
8.86459e-05
-0.000108107
-0.000362975
-0.000619499
-0.000845073
-0.00103755
-0.00120903
-0.00136866
-0.00153163
-0.00170776
-0.00189322
-0.00209986
-0.00233509
-0.00258372
-0.00283044
-0.00305639
-0.00323573
-0.0033262
-0.0032613
0.000178451
8.98989e-05
-0.00011832
-0.000386535
-0.000658942
-0.00090005
-0.00110405
-0.00128327
-0.00145039
-0.00162387
-0.00181371
-0.00201349
-0.00223166
-0.00247643
-0.00273561
-0.00299154
-0.00322451
-0.003409
-0.00350179
-0.00343759
0.000181591
8.67343e-05
-0.000131745
-0.000411911
-0.000698862
-0.000955668
-0.00117259
-0.00136159
-0.00153773
-0.0017203
-0.00192218
-0.00213642
-0.00236568
-0.00261853
-0.0028862
-0.00315013
-0.00338894
-0.00357743
-0.00367245
-0.00360858
0.000179594
7.96487e-05
-0.000148009
-0.000439442
-0.000739304
-0.00101122
-0.00124263
-0.00144253
-0.00162936
-0.00182116
-0.00203231
-0.00226031
-0.00250048
-0.00276052
-0.00303452
-0.00330498
-0.00354963
-0.00374094
-0.00383706
-0.00377314
0.000172363
6.76562e-05
-0.000167451
-0.000468711
-0.000780541
-0.00106663
-0.0013132
-0.00152488
-0.00172199
-0.00192551
-0.00214537
-0.00238326
-0.00263477
-0.00290178
-0.0031805
-0.00345521
-0.00370469
-0.0038991
-0.00399582
-0.00393111
0.00015948
5.12718e-05
-0.000189976
-0.0005
-0.000822539
-0.00112061
-0.00138175
-0.00160923
-0.00181674
-0.00202947
-0.00225923
-0.00250587
-0.00276726
-0.0030403
-0.00332223
-0.00360069
-0.0038531
-0.0040497
-0.0041477
-0.00408235
0.000140597
2.96573e-05
-0.000215334
-0.000531978
-0.00086376
-0.00117417
-0.00144847
-0.00169037
-0.00191195
-0.00213354
-0.00237207
-0.00262732
-0.00289524
-0.00317491
-0.00346089
-0.00374121
-0.00399468
-0.00419203
-0.00429104
-0.00422562
0.00011605
3.51902e-06
-0.000244087
-0.000564473
-0.000902975
-0.00122531
-0.00151288
-0.00176781
-0.00200371
-0.00223662
-0.00248297
-0.00274603
-0.00301923
-0.00330328
-0.00359298
-0.00387452
-0.00412939
-0.0043271
-0.00442571
-0.00435969
8.56089e-05
-2.77008e-05
-0.000274528
-0.000596465
-0.000940197
-0.00127142
-0.00157253
-0.00184233
-0.00209098
-0.00233457
-0.00258915
-0.00285966
-0.00313866
-0.00342559
-0.00371754
-0.00400063
-0.00425598
-0.0044536
-0.00455157
-0.00448404
5.052e-05
-6.26473e-05
-0.000306988
-0.000627183
-0.000973538
-0.00131255
-0.00162585
-0.00190876
-0.0021714
-0.00242701
-0.00268921
-0.00296672
-0.00325136
-0.00354032
-0.00383312
-0.00411759
-0.00437382
-0.00457158
-0.00466797
-0.00459823
1.10945e-05
-0.000100757
-0.000340639
-0.000656111
-0.00100117
-0.00134658
-0.0016715
-0.00196521
-0.0022416
-0.00251209
-0.00278042
-0.00306197
-0.00335323
-0.00364624
-0.00393935
-0.00422259
-0.00447888
-0.00467784
-0.00477437
-0.00470291
-2.95288e-05
-0.000140436
-0.000373876
-0.000683354
-0.00102678
-0.00137318
-0.00170645
-0.00201432
-0.00229903
-0.00258063
-0.00286105
-0.00314585
-0.00344044
-0.00373694
-0.00403164
-0.00431417
-0.00457006
-0.00476912
-0.00486506
-0.0047934
-6.68751e-05
-0.000175601
-0.000403936
-0.000706322
-0.00104674
-0.00139414
-0.00173051
-0.00204889
-0.00234347
-0.00263039
-0.00292155
-0.00321137
-0.0035061
-0.00380416
-0.00409934
-0.00438295
-0.00463718
-0.00483322
-0.00492687
-0.00485519
-0.000103151
-0.000212633
-0.000436395
-0.000733303
-0.00107102
-0.00141955
-0.00175856
-0.00208451
-0.00238832
-0.00267933
-0.00297753
-0.00327298
-0.00356756
-0.00386564
-0.00416021
-0.00444253
-0.00469219
-0.00488216
-0.00497043
-0.00489389
0.00312344
0.00332712
0.00321762
0.00309982
0.00300193
0.00286484
0.00265019
0.00236477
0.00203193
0.00167332
0.00130924
0.000953359
0.000605025
0.000257224
-9.51999e-05
-0.000458368
-0.000841488
-0.00125565
-0.00171232
-0.00222503
-0.00280167
-0.0034445
-0.0041487
-0.00490112
-0.0056692
-0.00639522
-0.00699431
-0.00738073
-0.00751303
-0.00740748
-0.00714062
-0.00680051
-0.00646012
-0.0061601
-0.00591407
-0.00572933
-0.00560436
-0.00553467
-0.00550741
-0.00551384
-0.00554543
-0.00559066
-0.00564575
-0.00570893
-0.00578134
-0.00585494
-0.00592947
-0.00600751
-0.00608559
-0.00616231
-0.00623767
-0.0063175
-0.00639286
-0.00646365
-0.00653705
-0.00661349
-0.00669185
-0.0067668
-0.00684707
-0.00692538
-0.00699797
-0.00707661
-0.00715284
-0.00722981
-0.00731018
-0.00738811
-0.00746868
-0.00754784
-0.00762862
-0.00770756
-0.00778636
-0.00786995
-0.00794646
-0.00802895
-0.00811645
-0.00819196
-0.008274
-0.00835666
-0.00843032
-0.00851372
-0.00859446
-0.0086642
-0.0087431
-0.0088165
-0.00887998
-0.00895912
-0.0090358
-0.00909022
-0.00915127
-0.00922666
-0.00929131
-0.00934313
-0.00940372
-0.00946621
-0.00952081
-0.00957595
-0.00962927
-0.00967935
-0.00972288
-0.00976378
0.00252535
0.0029563
0.00311137
0.00308276
0.00298345
0.00283184
0.00261352
0.00233197
0.00200372
0.0016477
0.00128456
0.000929268
0.000581634
0.000234508
-0.000117084
-0.000479278
-0.000861243
-0.00127392
-0.00172846
-0.00223771
-0.00280979
-0.003447
-0.00414354
-0.00488488
-0.00564031
-0.00635506
-0.00694897
-0.00733999
-0.00748145
-0.00738461
-0.00712414
-0.00678806
-0.00644967
-0.00615152
-0.00590698
-0.00572327
-0.00559895
-0.00552977
-0.00550284
-0.00550957
-0.00554144
-0.00558688
-0.00564217
-0.00570553
-0.0057782
-0.00585198
-0.00592667
-0.00600493
-0.00608318
-0.00616004
-0.00623551
-0.00631555
-0.00639104
-0.00646193
-0.00653548
-0.00661202
-0.00669048
-0.00676549
-0.00684586
-0.00692425
-0.00699687
-0.0070756
-0.00715189
-0.00722891
-0.00730933
-0.00738729
-0.0074679
-0.00754709
-0.00762792
-0.0077069
-0.00778571
-0.00786937
-0.00794587
-0.00802838
-0.00811597
-0.00819146
-0.00827353
-0.00835625
-0.00842989
-0.00851334
-0.00859413
-0.00866385
-0.0087428
-0.00881623
-0.00887969
-0.00895888
-0.0090356
-0.00909001
-0.00915106
-0.0092265
-0.00929117
-0.00934298
-0.00940359
-0.00946611
-0.0095207
-0.00957586
-0.00962919
-0.00967929
-0.00972282
-0.00976374
0.00220501
0.00274034
0.003056
0.00311578
0.00301826
0.00283913
0.00259997
0.00231035
0.00198053
0.00162382
0.00125917
0.000902318
0.000553712
0.000205714
-0.000146367
-0.000508265
-0.000889407
-0.00130087
-0.00175313
-0.00225762
-0.00282216
-0.00344929
-0.00413152
-0.00485134
-0.00557938
-0.00626614
-0.00684048
-0.00722733
-0.00738304
-0.00731282
-0.00707852
-0.006761
-0.00643384
-0.00614214
-0.00590298
-0.00572343
-0.00560131
-0.00553278
-0.00550569
-0.00551182
-0.00554299
-0.00558781
-0.00564261
-0.00570551
-0.0057778
-0.00585134
-0.00592584
-0.00600388
-0.00608197
-0.00615875
-0.00623405
-0.00631389
-0.00638935
-0.0064603
-0.00653389
-0.00661051
-0.00668903
-0.00676402
-0.00684441
-0.00692281
-0.00699545
-0.0070743
-0.00715065
-0.00722775
-0.00730826
-0.00738623
-0.0074669
-0.00754612
-0.00762699
-0.00770603
-0.00778489
-0.00786862
-0.00794514
-0.00802768
-0.00811531
-0.00819082
-0.00827295
-0.00835571
-0.00842935
-0.00851285
-0.00859367
-0.00866341
-0.00874241
-0.00881588
-0.00887933
-0.00895857
-0.00903533
-0.00908974
-0.00915082
-0.0092263
-0.00929098
-0.0093428
-0.00940343
-0.00946598
-0.00952058
-0.00957576
-0.0096291
-0.00967923
-0.00972286
-0.0097638
0.00193655
0.00251095
0.00292193
0.00306957
0.00300818
0.00282602
0.00257199
0.00227247
0.00193974
0.00158325
0.00121903
0.000862521
0.000514271
0.000166184
-0.000185816
-0.000547003
-0.000926939
-0.00133627
-0.00178511
-0.00228293
-0.00283695
-0.00345007
-0.00411287
-0.00480724
-0.0055041
-0.00615931
-0.00671082
-0.00709251
-0.00726392
-0.00722383
-0.00702076
-0.00672673
-0.0064142
-0.00613103
-0.00589742
-0.00572163
-0.00560134
-0.00553336
-0.00550611
-0.00551154
-0.00554188
-0.0055861
-0.00564055
-0.00570307
-0.00577501
-0.00584847
-0.00592293
-0.00600085
-0.0060789
-0.00615579
-0.00623098
-0.00631055
-0.00638608
-0.00645728
-0.00653106
-0.0066079
-0.00668654
-0.00676163
-0.00684208
-0.00692047
-0.00699321
-0.00707223
-0.00714872
-0.00722597
-0.0073066
-0.00738464
-0.00746537
-0.00754461
-0.0076255
-0.00770458
-0.00778354
-0.00786738
-0.00794394
-0.00802646
-0.00811409
-0.00818963
-0.00827186
-0.00835467
-0.00842828
-0.00851179
-0.00859266
-0.00866243
-0.00874149
-0.00881505
-0.00887852
-0.00895774
-0.00903457
-0.00908909
-0.0091502
-0.00922568
-0.00929041
-0.0093423
-0.00940298
-0.00946558
-0.0095202
-0.00957543
-0.00962883
-0.00967901
-0.00972288
-0.00976389
0.0016923
0.00227883
0.00275286
0.00298276
0.00297941
0.00281423
0.00255493
0.00224512
0.00190509
0.00154478
0.00117881
0.000822074
0.000474212
0.00012632
-0.000225399
-0.000585876
-0.00096442
-0.00137096
-0.00181571
-0.002306
-0.00284782
-0.0034448
-0.00408586
-0.00475226
-0.00541735
-0.0060418
-0.00657138
-0.00694798
-0.00713389
-0.0071231
-0.00695317
-0.00668608
-0.00639114
-0.00611812
-0.00589021
-0.00571788
-0.00559947
-0.00553241
-0.0055055
-0.00551057
-0.00554026
-0.00558402
-0.00563824
-0.00570039
-0.00577195
-0.00584535
-0.00591972
-0.00599749
-0.00607549
-0.00615247
-0.0062275
-0.00630661
-0.00638215
-0.00645361
-0.00652759
-0.00660465
-0.00668342
-0.00675859
-0.00683902
-0.00691734
-0.00699018
-0.00706939
-0.00714609
-0.00722347
-0.00730425
-0.00738244
-0.00746316
-0.00754244
-0.00762334
-0.00770243
-0.00778156
-0.00786552
-0.00794211
-0.00802461
-0.00811218
-0.00818778
-0.00827014
-0.00835302
-0.00842657
-0.00851006
-0.008591
-0.00866081
-0.00873991
-0.00881366
-0.00887719
-0.00895626
-0.00903317
-0.00908797
-0.00914912
-0.00922453
-0.00928935
-0.0093414
-0.00940214
-0.0094648
-0.00951948
-0.00957477
-0.00962829
-0.00967853
-0.00972277
-0.00976392
0.00146462
0.00205151
0.00257264
0.00287282
0.00293315
0.00280079
0.00254709
0.00222835
0.0018769
0.00150815
0.0011373
0.000778811
0.000431083
8.37349e-05
-0.000267389
-0.000626717
-0.00100322
-0.00140615
-0.00184564
-0.00232758
-0.00285601
-0.00343524
-0.0040537
-0.00469203
-0.00532607
-0.00592122
-0.00643004
-0.00680114
-0.00699968
-0.00701632
-0.00687947
-0.00664108
-0.006366
-0.00610469
-0.00588288
-0.00571388
-0.00559725
-0.00553107
-0.00550461
-0.00550945
-0.00553854
-0.00558187
-0.00563585
-0.00569761
-0.00576871
-0.00584206
-0.00591634
-0.00599387
-0.0060718
-0.00614888
-0.00622364
-0.00630214
-0.00637769
-0.00644948
-0.00652362
-0.0066009
-0.00667983
-0.00675505
-0.00683543
-0.00691368
-0.00698659
-0.00706602
-0.00714302
-0.00722051
-0.00730143
-0.00737979
-0.00746047
-0.00753981
-0.00762068
-0.00769975
-0.00777911
-0.0078632
-0.00793983
-0.00802226
-0.00810973
-0.00818539
-0.00826788
-0.00835085
-0.00842433
-0.00850773
-0.00858876
-0.00865864
-0.00873769
-0.00881173
-0.00887536
-0.00895414
-0.00903113
-0.00908639
-0.00914756
-0.0092228
-0.00928776
-0.00934008
-0.00940084
-0.00946359
-0.00951837
-0.00957374
-0.00962742
-0.00967778
-0.00972248
-0.00976382
0.00124234
0.0018284
0.00238563
0.0027451
0.00286733
0.00277677
0.00253815
0.00221556
0.00185256
0.0014726
0.00109388
0.000731545
0.000383362
3.69779e-05
-0.000313025
-0.000670321
-0.00104382
-0.00144247
-0.00187557
-0.00234829
-0.00286272
-0.00342293
-0.00401812
-0.00462881
-0.00523251
-0.00579947
-0.00628846
-0.00665344
-0.00686216
-0.00690373
-0.00679927
-0.00659099
-0.00633798
-0.00609003
-0.00587513
-0.00570952
-0.00559448
-0.00552906
-0.00550303
-0.00550767
-0.00553627
-0.00557925
-0.00563304
-0.00569444
-0.00576509
-0.00583843
-0.00591265
-0.0059899
-0.00606769
-0.00614487
-0.00621933
-0.00629712
-0.00637273
-0.00644489
-0.00651921
-0.00659677
-0.00667586
-0.00675114
-0.00683145
-0.00690967
-0.00698263
-0.00706223
-0.0071396
-0.0072173
-0.00729832
-0.00737683
-0.00745749
-0.00753685
-0.00761771
-0.00769676
-0.00777635
-0.00786061
-0.00793725
-0.00801958
-0.00810694
-0.00818269
-0.00826527
-0.00834836
-0.00842176
-0.00850502
-0.00858614
-0.00865611
-0.00873508
-0.00880944
-0.00887321
-0.00895158
-0.00902867
-0.00908451
-0.00914567
-0.00922066
-0.0092858
-0.00933845
-0.00939922
-0.00946207
-0.00951698
-0.00957243
-0.00962631
-0.00967681
-0.00972201
-0.00976358
0.00101969
0.00160644
0.0021937
0.00260414
0.00278332
0.00273877
0.00252232
0.00220245
0.00183089
0.00143887
0.00104996
0.00068143
0.000331433
-1.39072e-05
-0.000362221
-0.000716869
-0.00108645
-0.00148005
-0.0019057
-0.00236797
-0.0028676
-0.00340773
-0.00397899
-0.00456264
-0.00513715
-0.00567679
-0.00614629
-0.00650436
-0.00672116
-0.00678514
-0.00671181
-0.00653454
-0.0063055
-0.00607284
-0.00586616
-0.00570456
-0.00559101
-0.00552618
-0.00550058
-0.00550499
-0.00553316
-0.00557589
-0.0056296
-0.00569073
-0.00576095
-0.00583431
-0.00590851
-0.00598551
-0.00606314
-0.00614041
-0.00621461
-0.00629163
-0.00636726
-0.0064399
-0.00651446
-0.00659227
-0.00667157
-0.00674693
-0.00682709
-0.0069053
-0.00697841
-0.00705814
-0.00713587
-0.00721386
-0.00729498
-0.00737361
-0.00745423
-0.00753364
-0.0076145
-0.00769352
-0.00777334
-0.00785779
-0.00793445
-0.00801664
-0.00810389
-0.00817977
-0.00826243
-0.0083456
-0.00841895
-0.00850205
-0.00858326
-0.00865332
-0.00873219
-0.00880692
-0.00887083
-0.00894875
-0.00902593
-0.00908242
-0.00914356
-0.00921826
-0.00928361
-0.00933662
-0.00939739
-0.00946034
-0.00951541
-0.00957092
-0.00962505
-0.00967571
-0.00972139
-0.00976326
0.000795842
0.00138501
0.00199874
0.00245361
0.00268396
0.00268524
0.00249668
0.00218549
0.00181002
0.00140745
0.001007
0.000629808
0.000275826
-6.9075e-05
-0.0004152
-0.000766586
-0.00113116
-0.00151852
-0.00193551
-0.00238583
-0.00286972
-0.00338929
-0.0039364
-0.00449363
-0.00504008
-0.00555318
-0.00600329
-0.0063537
-0.00657681
-0.0066607
-0.00661678
-0.00647092
-0.00626779
-0.00605256
-0.00585579
-0.00569903
-0.00558709
-0.00552256
-0.00549724
-0.00550135
-0.00552903
-0.00557159
-0.00562535
-0.0056864
-0.00575627
-0.00582968
-0.005904
-0.00598082
-0.00605825
-0.0061356
-0.00620958
-0.0062858
-0.00636135
-0.0064345
-0.00650942
-0.00658746
-0.00666696
-0.00674241
-0.0068224
-0.0069006
-0.0069739
-0.00705382
-0.00713185
-0.0072101
-0.00729143
-0.0073702
-0.00745069
-0.00753015
-0.00761107
-0.00769005
-0.00777008
-0.00785473
-0.00793144
-0.00801347
-0.00810059
-0.00817664
-0.00825939
-0.0083426
-0.00841589
-0.00849886
-0.00858017
-0.00865034
-0.00872906
-0.00880416
-0.00886828
-0.00894569
-0.00902295
-0.00908017
-0.00914128
-0.00921564
-0.00928123
-0.00933464
-0.0093954
-0.00945844
-0.0095137
-0.00956927
-0.00962366
-0.00967451
-0.00972067
-0.00976289
0.00057229
0.00116539
0.0018028
0.0022965
0.00257257
0.0026174
0.00245956
0.0021619
0.00178737
0.00137753
0.000965479
0.000577742
0.000217867
-0.000127636
-0.000471307
-0.000818681
-0.00117737
-0.00155742
-0.00196466
-0.00240165
-0.00286889
-0.00336787
-0.00389093
-0.0044221
-0.0049413
-0.00542858
-0.00585963
-0.00620176
-0.00642956
-0.00653111
-0.00651463
-0.00639996
-0.00622428
-0.00602864
-0.00584352
-0.00569261
-0.00558267
-0.00551832
-0.00549304
-0.00549675
-0.00552385
-0.00556632
-0.00562033
-0.00568148
-0.00575116
-0.00582466
-0.00589913
-0.00597582
-0.00605301
-0.00613039
-0.00620409
-0.00627954
-0.00635504
-0.00642865
-0.00650396
-0.00658235
-0.0066621
-0.00673762
-0.0068174
-0.00689555
-0.00696902
-0.00704921
-0.0071276
-0.00720601
-0.00728757
-0.00736659
-0.00744692
-0.00752635
-0.00760737
-0.00768636
-0.00776657
-0.00785142
-0.00792821
-0.00801008
-0.00809702
-0.00817326
-0.00825616
-0.00833941
-0.00841259
-0.0084954
-0.00857686
-0.00864717
-0.00872568
-0.00880116
-0.00886558
-0.00894241
-0.00901973
-0.00907776
-0.00913884
-0.00921282
-0.00927867
-0.0093325
-0.00939327
-0.0094564
-0.00951186
-0.0095675
-0.00962216
-0.00967322
-0.00971983
-0.00976246
0.00034971
0.000947899
0.00160688
0.00213427
0.00245093
0.00253633
0.00240991
0.00212952
0.00176022
0.00134749
0.000925742
0.000526549
0.000159296
-0.000188373
-0.000530106
-0.000873004
-0.00122527
-0.00159705
-0.00199329
-0.00241574
-0.0028654
-0.00334363
-0.0038428
-0.00434814
-0.00484075
-0.00530313
-0.00571566
-0.00604913
-0.00628015
-0.00639721
-0.00640604
-0.00632157
-0.0061742
-0.00600014
-0.00582866
-0.00568495
-0.00557776
-0.00551373
-0.00548823
-0.00549134
-0.00551773
-0.00556002
-0.00561435
-0.00567575
-0.00574537
-0.00581907
-0.00589374
-0.00597035
-0.00604735
-0.00612479
-0.00619822
-0.00627293
-0.00634841
-0.00642247
-0.00649809
-0.00657677
-0.00665692
-0.00673248
-0.00681195
-0.00689014
-0.00696375
-0.00704422
-0.00712313
-0.00720166
-0.00728333
-0.00736269
-0.00744292
-0.00752228
-0.00760337
-0.00768236
-0.00776282
-0.0078479
-0.00792473
-0.00800643
-0.00809322
-0.00816959
-0.00825265
-0.00833604
-0.00840909
-0.00849166
-0.00857331
-0.0086438
-0.00872205
-0.00879793
-0.00886271
-0.00893891
-0.00901625
-0.00907517
-0.00913625
-0.00920979
-0.00927593
-0.00933021
-0.00939097
-0.0094542
-0.0095099
-0.0095656
-0.00962055
-0.00967185
-0.00971888
-0.00976194
0.000128578
0.000732622
0.00141141
0.00196815
0.00232004
0.00244265
0.00234749
0.00208701
0.00172652
0.0013151
0.000887139
0.00047697
0.000100849
-0.000250625
-0.000591422
-0.000929682
-0.0012748
-0.00163727
-0.00202143
-0.00242847
-0.0028597
-0.00331676
-0.00379211
-0.00427197
-0.00473899
-0.00517759
-0.00557198
-0.00589649
-0.0061294
-0.00625964
-0.00629153
-0.00623587
-0.00611715
-0.00596639
-0.00581065
-0.00567583
-0.00557232
-0.00550883
-0.00548283
-0.00548494
-0.00551043
-0.0055525
-0.00560713
-0.00566898
-0.00573886
-0.00581286
-0.0058879
-0.00596455
-0.00604141
-0.00611887
-0.0061919
-0.00626587
-0.00634125
-0.00641579
-0.00649173
-0.00657061
-0.00665137
-0.00672715
-0.0068061
-0.00688434
-0.00695814
-0.00703874
-0.00711831
-0.00719708
-0.00727872
-0.00735842
-0.00743867
-0.00751797
-0.00759908
-0.00767802
-0.00775873
-0.00784415
-0.00792103
-0.00800247
-0.00808913
-0.00816565
-0.00824886
-0.00833245
-0.0084054
-0.00848763
-0.00856946
-0.00864022
-0.00871816
-0.00879444
-0.00885965
-0.00893517
-0.00901251
-0.00907239
-0.00913348
-0.00920653
-0.00927301
-0.00932777
-0.00938851
-0.00945182
-0.00950779
-0.00956358
-0.00961882
-0.00967039
-0.00971781
-0.00976133
-9.0261e-05
0.000519741
0.00121656
0.00179899
0.00218132
0.00233791
0.00227355
0.00203452
0.00168539
0.001278
0.00084765
0.000428435
4.26795e-05
-0.000313487
-0.000654146
-0.00098812
-0.00132545
-0.00167769
-0.00204917
-0.00244018
-0.00285201
-0.00328728
-0.00373879
-0.00419371
-0.00463635
-0.00505223
-0.00542857
-0.00574382
-0.00597772
-0.00611906
-0.00617174
-0.00614336
-0.00605301
-0.00592675
-0.00578861
-0.00566432
-0.00556571
-0.00550333
-0.00547685
-0.00547771
-0.00550205
-0.00554379
-0.00559866
-0.00566116
-0.00573156
-0.00580603
-0.00588158
-0.00595826
-0.00603495
-0.00611243
-0.00618498
-0.0062582
-0.00633352
-0.00640869
-0.00648511
-0.00656403
-0.00664529
-0.00672146
-0.00679988
-0.00687804
-0.00695209
-0.00703281
-0.00711305
-0.00719227
-0.00727389
-0.00735379
-0.00743403
-0.00751334
-0.00759452
-0.00767339
-0.00775428
-0.00784012
-0.00791712
-0.00799823
-0.00808475
-0.00816143
-0.00824474
-0.00832858
-0.00840152
-0.00848331
-0.00856531
-0.00863641
-0.00871402
-0.00879067
-0.00885638
-0.0089312
-0.0090085
-0.00906941
-0.00913052
-0.00920302
-0.00926989
-0.00932518
-0.00938587
-0.00944925
-0.00950552
-0.00956144
-0.00961694
-0.0096688
-0.00971661
-0.00976061
-0.000307114
0.000308474
0.00102172
0.00162717
0.00203607
0.00222307
0.0021884
0.00197156
0.00163533
0.00123409
0.000805112
0.000380279
-1.4378e-05
-0.000375869
-0.000717181
-0.00104761
-0.00137698
-0.00171811
-0.00207631
-0.00245092
-0.0028427
-0.00325554
-0.00368324
-0.0041138
-0.00453321
-0.00492742
-0.00528564
-0.00559124
-0.00582587
-0.00597677
-0.00604749
-0.00604431
-0.00598156
-0.00588046
-0.0057616
-0.00564953
-0.00555738
-0.00549702
-0.00547039
-0.00546993
-0.00549268
-0.00553393
-0.00558893
-0.00565202
-0.00572323
-0.00579827
-0.00587442
-0.00595135
-0.00602793
-0.00610544
-0.00617763
-0.00625019
-0.00632531
-0.00640105
-0.00647805
-0.00655697
-0.00663857
-0.00671516
-0.00679325
-0.00687135
-0.0069457
-0.00702651
-0.00710728
-0.00718706
-0.00726881
-0.00734884
-0.00742891
-0.0075083
-0.00758973
-0.0076685
-0.00774949
-0.00783575
-0.00791292
-0.00799369
-0.00808006
-0.00815695
-0.00824036
-0.00832441
-0.00839736
-0.00847871
-0.00856089
-0.00863235
-0.00870958
-0.00878664
-0.00885291
-0.00892694
-0.00900418
-0.00906624
-0.00912737
-0.00919926
-0.00926657
-0.00932241
-0.00938304
-0.00944651
-0.00950309
-0.00955915
-0.00961494
-0.00966709
-0.00971526
-0.00975976
-0.000522336
9.81574e-05
0.000826314
0.00145287
0.0018855
0.00209888
0.00209197
0.00189775
0.00157595
0.001183
0.000758124
0.000331552
-7.01397e-05
-0.00043722
-0.000779838
-0.0011073
-0.00142905
-0.00175878
-0.0021027
-0.00246054
-0.0028322
-0.00322213
-0.0036261
-0.0040329
-0.00442981
-0.00480342
-0.00514394
-0.00543935
-0.00567423
-0.00583373
-0.00591964
-0.00593898
-0.0059031
-0.00582739
-0.0057289
-0.00563084
-0.00554683
-0.00548958
-0.00546326
-0.00546174
-0.00548251
-0.00552285
-0.00557794
-0.00564137
-0.00571348
-0.00578946
-0.00586656
-0.00594397
-0.00602048
-0.00609791
-0.00616966
-0.00624166
-0.00631645
-0.00639258
-0.00647045
-0.00654954
-0.00663147
-0.00670844
-0.00678612
-0.00686422
-0.00693888
-0.00701973
-0.00710109
-0.00718138
-0.00726331
-0.00734368
-0.00742353
-0.00750277
-0.00758456
-0.00766337
-0.00774432
-0.00783101
-0.00790842
-0.00798882
-0.00807505
-0.0081522
-0.00823571
-0.00831993
-0.00839288
-0.00847377
-0.00855618
-0.00862805
-0.00870478
-0.00878231
-0.00884926
-0.0089224
-0.00899953
-0.00906288
-0.00912403
-0.00919522
-0.00926301
-0.00931949
-0.00938001
-0.00944353
-0.0095005
-0.00955671
-0.00961275
-0.00966525
-0.00971377
-0.00975876
-0.000735322
-0.000110874
0.000630453
0.00127623
0.00173068
0.0019672
0.00198576
0.00181428
0.00150803
0.00112473
0.00070545
0.000280264
-0.000125597
-0.000497587
-0.000841527
-0.00116612
-0.0014806
-0.00179913
-0.00212818
-0.00246895
-0.002821
-0.00318781
-0.0035676
-0.00395119
-0.00432642
-0.0046805
-0.00500425
-0.00528876
-0.00552265
-0.00569012
-0.00578947
-0.00582834
-0.00581784
-0.00576753
-0.00568995
-0.00560746
-0.00553335
-0.00548053
-0.00545518
-0.00545287
-0.00547181
-0.00551062
-0.00556543
-0.00562929
-0.00570232
-0.00577955
-0.00585796
-0.00593597
-0.00601234
-0.00608952
-0.00616091
-0.00623251
-0.00630706
-0.00638364
-0.00646245
-0.00654184
-0.00662397
-0.00670098
-0.00677817
-0.00685652
-0.00693162
-0.00701247
-0.00709463
-0.00717547
-0.00725731
-0.00733805
-0.00741787
-0.00749681
-0.00757884
-0.00765796
-0.00773897
-0.00782592
-0.00790354
-0.0079836
-0.00806973
-0.00814718
-0.00823072
-0.00831511
-0.0083881
-0.00846851
-0.00855114
-0.00862348
-0.00869968
-0.00877768
-0.0088454
-0.00891754
-0.00899454
-0.00905932
-0.00912045
-0.0091909
-0.00925922
-0.00931638
-0.00937679
-0.00944033
-0.00949774
-0.0095541
-0.00961037
-0.00966329
-0.00971212
-0.00975759
-0.000946091
-0.000318621
0.000434302
0.00109739
0.00157209
0.00182961
0.00187077
0.00172115
0.00143106
0.00105842
0.000646303
0.000225092
-0.000181479
-0.00055665
-0.000901571
-0.00122348
-0.00153095
-0.00183848
-0.00215288
-0.00247624
-0.00280894
-0.0031532
-0.00350854
-0.00386905
-0.00422349