/*--------------------------------*- C++ -*----------------------------------*\
| =========                 |                                                 |
| \\      /  F ield         | OpenFOAM: The Open Source CFD Toolbox           |
|  \\    /   O peration     | Version:  v2106                                 |
|   \\  /    A nd           | Website:  www.openfoam.com                      |
|    \\/     M anipulation  |                                                 |
\*---------------------------------------------------------------------------*/
FoamFile
{
    version     2.0;
    format      ascii;
    arch        "LSB;label=32;scalar=64";
    class       surfaceScalarField;
    location    "1.1";
    object      phi;
}
// * * * * * * * * * * * * * * * * * * * * * * * * * * * * * * * * * * * * * //

dimensions      [0 3 -1 0 0 0 0];

oriented        oriented;

internalField   nonuniform List<scalar> 
9440
(
3.88231e-06
1.51652e-08
3.87752e-06
-1.46965e-08
3.88001e-06
-7.55199e-09
3.8775e-06
-1.54119e-08
3.87962e-06
-2.2166e-09
3.8781e-06
-2.28099e-08
3.87933e-06
-1.44929e-09
3.87877e-06
-2.50489e-08
3.87963e-06
-4.8368e-09
3.87986e-06
-2.34053e-08
3.88097e-06
-1.82568e-09
3.88142e-06
-2.0536e-08
3.88257e-06
-2.32809e-09
3.88276e-06
-1.80367e-08
3.88372e-06
-1.82831e-09
3.88418e-06
-1.59483e-08
3.88374e-06
-4.93146e-10
3.87896e-06
-1.05327e-08
3.86617e-06
1.5139e-08
3.10694e-08
3.84279e-06
4.18408e-06
1.69436e-08
4.18673e-06
-1.73452e-08
4.18411e-06
-4.93142e-09
4.1868e-06
-1.81019e-08
4.18524e-06
-6.59599e-10
4.18679e-06
-2.43542e-08
4.18612e-06
-7.85853e-10
4.18603e-06
-2.49514e-08
4.18639e-06
-5.20289e-09
4.18488e-06
-2.18943e-08
4.18656e-06
-3.503e-09
4.1852e-06
-1.91792e-08
4.18757e-06
-4.69373e-09
4.18697e-06
-1.7435e-08
4.18919e-06
-4.0538e-09
4.18584e-06
-1.25932e-08
4.18467e-06
6.72257e-10
4.17385e-06
2.84204e-10
4.16653e-06
2.24644e-08
3.80529e-08
4.15954e-06
4.51864e-06
1.83639e-08
4.5204e-06
-1.9099e-08
4.51924e-06
-3.78009e-09
4.51985e-06
-1.87035e-08
4.52078e-06
-1.59336e-09
4.51953e-06
-2.31025e-08
4.52221e-06
-3.46595e-09
4.51899e-06
-2.17329e-08
4.52276e-06
-8.96951e-09
4.51829e-06
-1.7427e-08
4.52316e-06
-8.37535e-09
4.51851e-06
-1.45273e-08
4.52446e-06
-1.06463e-08
4.52109e-06
-1.40625e-08
4.52558e-06
-8.54151e-09
4.52096e-06
-7.97833e-09
4.52173e-06
-9.82408e-11
4.51107e-06
1.09502e-08
4.50293e-06
3.06008e-08
4.5528e-08
4.49546e-06
4.88139e-06
1.79167e-08
4.8809e-06
-1.86044e-08
4.88249e-06
-5.37109e-09
4.88058e-06
-1.67921e-08
4.88393e-06
-4.94032e-09
4.88047e-06
-1.96479e-08
4.88496e-06
-7.95645e-09
4.88077e-06
-1.75428e-08
4.88481e-06
-1.30053e-08
4.88173e-06
-1.43533e-08
4.88567e-06
-1.23125e-08
4.88556e-06
-1.44148e-08
4.88779e-06
-1.28746e-08
4.88708e-06
-1.3358e-08
4.88777e-06
-9.2325e-09
4.88428e-06
-4.48652e-09
4.87992e-06
4.26509e-09
4.8682e-06
2.26652e-08
4.86154e-06
3.72613e-08
4.96574e-08
4.85741e-06
5.2718e-06
1.67631e-08
5.27011e-06
-1.6918e-08
5.27346e-06
-8.72085e-09
5.27022e-06
-1.35505e-08
5.27475e-06
-9.47136e-09
5.27056e-06
-1.54586e-08
5.27527e-06
-1.2659e-08
5.27163e-06
-1.3906e-08
5.27507e-06
-1.64458e-08
5.27548e-06
-1.4761e-08
5.27724e-06
-1.40785e-08
5.27803e-06
-1.52037e-08
5.27936e-06
-1.42017e-08
5.27913e-06
-1.31325e-08
5.27819e-06
-8.28408e-09
5.27356e-06
1.43627e-10
5.26179e-06
1.60321e-08
5.25333e-06
3.11215e-08
5.24968e-06
4.09178e-08
5.20297e-08
5.2473e-06
5.69285e-06
1.5368e-08
5.69027e-06
-1.43369e-08
5.69488e-06
-1.33311e-08
5.69127e-06
-9.93222e-09
5.69557e-06
-1.37747e-08
5.69247e-06
-1.23569e-08
5.69545e-06
-1.56442e-08
5.69537e-06
-1.38261e-08
5.69659e-06
-1.76659e-08
5.69827e-06
-1.64351e-08
5.70001e-06
-1.58216e-08
5.70071e-06
-1.59027e-08
5.70165e-06
-1.5142e-08
5.70033e-06
-1.18098e-08
5.69546e-06
-3.41495e-09
5.68362e-06
1.1981e-08
5.67549e-06
2.41587e-08
5.67189e-06
3.47227e-08
5.66911e-06
4.36951e-08
5.32676e-08
5.66788e-06
6.1474e-06
1.38425e-08
6.14425e-06
-1.11957e-08
6.14919e-06
-1.82713e-08
6.14655e-06
-7.28492e-09
6.14889e-06
-1.61155e-08
6.14895e-06
-1.24173e-08
6.14831e-06
-1.50073e-08
6.15133e-06
-1.68491e-08
6.15284e-06
-1.91707e-08
6.15433e-06
-1.7922e-08
6.1559e-06
-1.73907e-08
6.15665e-06
-1.66565e-08
6.15556e-06
-1.40532e-08
6.1499e-06
-6.14688e-09
6.13885e-06
7.62967e-09
6.13115e-06
1.96812e-08
6.12705e-06
2.82627e-08
6.1246e-06
3.71677e-08
6.12258e-06
4.57172e-08
5.41678e-08
6.12168e-06
6.63816e-06
1.22407e-08
6.63487e-06
-7.89812e-09
6.63883e-06
-2.22361e-08
6.63832e-06
-6.77337e-09
6.63801e-06
-1.58098e-08
6.64116e-06
-1.55617e-08
6.64104e-06
-1.48856e-08
6.64278e-06
-1.85903e-08
6.64539e-06
-2.17859e-08
6.64709e-06
-1.9621e-08
6.64765e-06
-1.79441e-08
6.64676e-06
-1.57738e-08
6.64108e-06
-8.36857e-09
6.63077e-06
4.16032e-09
6.62296e-06
1.54356e-08
6.61879e-06
2.38576e-08
6.61606e-06
3.09949e-08
6.61403e-06
3.91937e-08
6.61218e-06
4.75697e-08
5.48116e-08
6.61153e-06
7.16802e-06
1.06534e-08
7.1651e-06
-4.97562e-09
7.16585e-06
-2.2995e-08
7.16926e-06
-1.01786e-08
7.16811e-06
-1.46618e-08
7.1712e-06
-1.86492e-08
7.17354e-06
-1.72289e-08
7.17498e-06
-2.0031e-08
7.1763e-06
-2.31068e-08
7.17821e-06
-2.15284e-08
7.17792e-06
-1.76519e-08
7.17365e-06
-1.15007e-08
7.16334e-06
1.9391e-09
7.15419e-06
1.33114e-08
7.14961e-06
2.00095e-08
7.14696e-06
2.65139e-08
7.14455e-06
3.33966e-08
7.14242e-06
4.13296e-08
7.14105e-06
4.89412e-08
5.53103e-08
7.14055e-06
7.74018e-06
9.07688e-09
7.73766e-06
-2.45533e-09
7.73714e-06
-2.24782e-08
7.74097e-06
-1.40007e-08
7.74301e-06
-1.6702e-08
7.74306e-06
-1.86999e-08
7.74677e-06
-2.09449e-08
7.74905e-06
-2.23104e-08
7.74992e-06
-2.39709e-08
7.74963e-06
-2.12414e-08
7.74446e-06
-1.24854e-08
7.73477e-06
-1.80795e-09
7.72697e-06
9.73879e-09
7.72296e-06
1.73229e-08
7.72017e-06
2.28024e-08
7.71767e-06
2.90113e-08
7.71515e-06
3.5911e-08
7.71329e-06
4.31967e-08
7.71219e-06
5.00391e-08
5.56666e-08
7.71183e-06
8.35804e-06
7.49562e-09
8.35611e-06
-5.22172e-10
8.35508e-06
-2.14476e-08
8.35736e-06
-1.62862e-08
8.36221e-06
-2.15478e-08
8.36367e-06
-2.01597e-08
8.36498e-06
-2.22553e-08
8.36745e-06
-2.47766e-08
8.36694e-06
-2.34626e-08
8.3614e-06
-1.57016e-08
8.35302e-06
-4.11274e-09
8.34538e-06
5.84039e-09
8.34169e-06
1.34249e-08
8.33912e-06
1.98945e-08
8.33643e-06
2.54948e-08
8.33386e-06
3.15788e-08
8.33161e-06
3.8156e-08
8.32992e-06
4.48881e-08
8.3291e-06
5.08597e-08
5.59376e-08
8.32883e-06
9.02524e-06
5.89816e-09
9.0241e-06
6.24134e-10
9.0234e-06
-2.07475e-08
9.02365e-06
-1.65427e-08
9.02901e-06
-2.69035e-08
9.03339e-06
-2.45365e-08
9.03347e-06
-2.23391e-08
9.03328e-06
-2.45832e-08
9.02981e-06
-1.99915e-08
9.02217e-06
-8.0696e-09
9.01423e-06
3.83565e-09
9.00954e-06
1.05264e-08
9.00696e-06
1.60004e-08
9.00453e-06
2.23247e-08
9.00198e-06
2.80523e-08
8.99957e-06
3.39834e-08
8.99748e-06
4.02459e-08
8.99603e-06
4.63381e-08
8.99537e-06
5.15253e-08
5.61309e-08
8.99517e-06
9.74571e-06
4.28935e-09
9.74507e-06
1.2686e-09
9.74558e-06
-2.12571e-08
9.74476e-06
-1.57246e-08
9.74752e-06
-2.96673e-08
9.75351e-06
-3.0529e-08
9.75458e-06
-2.34024e-08
9.74922e-06
-1.92224e-08
9.74185e-06
-1.26253e-08
9.73585e-06
-2.0717e-09
9.73196e-06
7.72783e-09
9.72852e-06
1.39631e-08
9.72576e-06
1.87621e-08
9.72325e-06
2.48343e-08
9.72087e-06
3.04389e-08
9.71863e-06
3.62202e-08
9.71673e-06
4.21461e-08
9.71559e-06
4.74823e-08
9.71492e-06
5.21892e-08
5.61649e-08
9.71489e-06
1.05236e-05
2.74065e-09
1.05234e-05
1.45108e-09
1.05245e-05
-2.22825e-08
1.05255e-05
-1.67143e-08
1.05236e-05
-2.78367e-08
1.0528e-05
-3.49393e-08
1.05295e-05
-2.48334e-08
1.05236e-05
-1.33991e-08
1.05154e-05
-4.41001e-09
1.05098e-05
3.53729e-09
1.05074e-05
1.0169e-08
1.0505e-05
1.63533e-08
1.05023e-05
2.14837e-08
1.04997e-05
2.73752e-08
1.04974e-05
3.2771e-08
1.04953e-05
3.83195e-08
1.04937e-05
4.3728e-08
1.04927e-05
4.85237e-08
1.04921e-05
5.2715e-08
5.60436e-08
1.04923e-05
1.13635e-05
1.36288e-09
1.1364e-05
1.02168e-09
1.1365e-05
-2.32693e-08
1.13684e-05
-2.01974e-08
1.1365e-05
-2.43769e-08
1.13615e-05
-3.14157e-08
1.13603e-05
-2.36929e-08
1.13585e-05
-1.158e-08
1.13542e-05
-1.52965e-10
1.1349e-05
8.7603e-09
1.13454e-05
1.37897e-08
1.13432e-05
1.85375e-08
1.13409e-05
2.38078e-08
1.13385e-05
2.97685e-08
1.13362e-05
3.50482e-08
1.13343e-05
4.02354e-08
1.1333e-05
4.50511e-08
1.13321e-05
4.94484e-08
1.13317e-05
5.30816e-08
5.58108e-08
1.13319e-05
1.22705e-05
1.91671e-10
1.22729e-05
-1.41181e-09
1.22716e-05
-2.19577e-08
1.22755e-05
-2.40829e-08
1.22737e-05
-2.25454e-08
1.22668e-05
-2.45759e-08
1.22615e-05
-1.83944e-08
1.22591e-05
-9.08639e-09
1.2258e-05
8.63189e-10
1.22553e-05
1.1485e-08
1.22517e-05
1.739e-08
1.22487e-05
2.15155e-08
1.22465e-05
2.60008e-08
1.22444e-05
3.19051e-08
1.22423e-05
3.71714e-08
1.22405e-05
4.19787e-08
1.22394e-05
4.61685e-08
1.22387e-05
5.02002e-08
1.22385e-05
5.32803e-08
5.5461e-08
1.22388e-05
1.325e-05
-9.2394e-10
1.32532e-05
-4.56632e-09
1.32519e-05
-2.06511e-08
1.32529e-05
-2.50405e-08
1.32533e-05
-2.30195e-08
1.32474e-05
-1.86595e-08
1.32405e-05
-1.14825e-08
1.32357e-05
-4.25951e-09
1.32339e-05
2.59898e-09
1.3233e-05
1.24109e-08
1.32304e-05
2.0023e-08
1.32273e-05
2.46082e-08
1.32248e-05
2.85314e-08
1.32228e-05
3.38767e-08
1.32209e-05
3.90151e-08
1.32195e-05
4.34335e-08
1.32185e-05
4.71637e-08
1.3218e-05
5.06961e-08
1.3218e-05
5.32953e-08
5.49626e-08
1.32185e-05
1.43079e-05
-2.10733e-09
1.43103e-05
-6.91384e-09
1.43112e-05
-2.1615e-08
1.4309e-05
-2.28471e-08
1.43076e-05
-2.16248e-08
1.43048e-05
-1.57761e-08
1.42989e-05
-5.62106e-09
1.4293e-05
1.635e-09
1.42897e-05
5.94932e-09
1.42883e-05
1.37152e-08
1.42869e-05
2.14748e-08
1.42844e-05
2.71332e-08
1.42817e-05
3.11723e-08
1.42797e-05
3.59196e-08
1.42781e-05
4.0606e-08
1.42769e-05
4.46606e-08
1.4276e-05
4.8038e-08
1.42757e-05
5.09898e-08
1.42759e-05
5.31404e-08
5.43372e-08
1.42765e-05
1.54501e-05
-3.17205e-09
1.54516e-05
-8.45637e-09
1.54531e-05
-2.30825e-08
1.54512e-05
-2.09754e-08
1.54465e-05
-1.69187e-08
1.54432e-05
-1.24726e-08
1.54402e-05
-2.64689e-09
1.54357e-05
6.16183e-09
1.54313e-05
1.03415e-08
1.54289e-05
1.60724e-08
1.54276e-05
2.28619e-08
1.54257e-05
2.90359e-08
1.54234e-05
3.34186e-08
1.54214e-05
3.79203e-08
1.542e-05
4.20287e-08
1.5419e-05
4.56429e-08
1.54184e-05
4.86665e-08
1.54183e-05
5.10843e-08
1.54186e-05
5.27907e-08
5.35906e-08
1.54194e-05
1.66832e-05
-3.89048e-09
1.66845e-05
-9.82436e-09
1.66844e-05
-2.28996e-08
1.66837e-05
-2.0282e-08
1.66786e-05
-1.18668e-08
1.66736e-05
-7.49966e-09
1.6671e-05
2.46099e-12
1.66685e-05
8.66714e-09
1.66647e-05
1.41243e-08
1.66617e-05
1.91102e-08
1.66598e-05
2.46922e-08
1.66582e-05
3.06641e-08
1.66564e-05
3.52182e-08
1.66547e-05
3.9605e-08
1.66534e-05
4.33603e-08
1.66526e-05
4.64197e-08
1.66522e-05
4.90441e-08
1.66523e-05
5.09882e-08
1.66529e-05
5.22605e-08
5.27213e-08
1.66537e-05
1.80148e-05
-4.25792e-09
1.80157e-05
-1.07651e-08
1.80137e-05
-2.08785e-08
1.80126e-05
-1.91722e-08
1.80098e-05
-9.07869e-09
1.80047e-05
-2.39677e-09
1.80011e-05
3.57991e-09
1.7999e-05
1.07804e-08
1.79964e-05
1.67332e-08
1.79934e-05
2.20714e-08
1.79911e-05
2.69803e-08
1.79896e-05
3.22286e-08
1.7988e-05
3.67656e-08
1.79868e-05
4.08752e-08
1.79857e-05
4.44408e-08
1.79851e-05
4.70076e-08
1.79849e-05
4.92089e-08
1.79852e-05
5.07301e-08
1.79859e-05
5.1587e-08
5.17278e-08
1.79868e-05
1.94527e-05
-4.25215e-09
1.9453e-05
-1.10724e-08
1.94501e-05
-1.79767e-08
1.94475e-05
-1.66219e-08
1.94459e-05
-7.43532e-09
1.94425e-05
1.03403e-09
1.94387e-05
7.37622e-09
1.94362e-05
1.32295e-08
1.9434e-05
1.89022e-08
1.94317e-05
2.44487e-08
1.94295e-05
2.91923e-08
1.94277e-05
3.3936e-08
1.94264e-05
3.81297e-08
1.94253e-05
4.19213e-08
1.94246e-05
4.51331e-08
1.94243e-05
4.73215e-08
1.94244e-05
4.91204e-08
1.94249e-05
5.02428e-08
1.94257e-05
5.07476e-08
5.06058e-08
1.94269e-05
2.10055e-05
-3.97094e-09
2.10051e-05
-1.06335e-08
2.1002e-05
-1.49026e-08
2.09988e-05
-1.33927e-08
2.09968e-05
-5.48396e-09
2.09946e-05
3.2414e-09
2.09916e-05
1.04327e-08
2.09889e-05
1.5915e-08
2.09867e-05
2.10316e-08
2.09848e-05
2.63945e-08
2.09829e-05
3.10798e-08
2.09812e-05
3.56059e-08
2.098e-05
3.93314e-08
2.09792e-05
4.27242e-08
2.09789e-05
4.55142e-08
2.09788e-05
4.73622e-08
2.09791e-05
4.88407e-08
2.09798e-05
4.95485e-08
2.09808e-05
4.9744e-08
4.93157e-08
2.09821e-05
2.26824e-05
-3.46972e-09
2.26811e-05
-9.27972e-09
2.26781e-05
-1.19711e-08
2.26747e-05
-9.98134e-09
2.26725e-05
-3.29122e-09
2.26707e-05
5.03213e-09
2.26684e-05
1.27297e-08
2.2666e-05
1.83941e-08
2.26638e-05
2.31861e-08
2.26621e-05
2.81483e-08
2.26606e-05
3.2569e-08
2.26592e-05
3.6941e-08
2.26582e-05
4.03349e-08
2.26578e-05
4.31972e-08
2.26576e-05
4.56499e-08
2.26578e-05
4.71481e-08
2.26584e-05
4.8303e-08
2.26593e-05
4.86487e-08
2.26604e-05
4.85777e-08
4.78989e-08
2.26619e-05
2.44934e-05
-2.8748e-09
2.44915e-05
-7.44999e-09
2.44885e-05
-8.92354e-09
2.44853e-05
-6.78149e-09
2.44827e-05
-7.29379e-10
2.44809e-05
6.84035e-09
2.44792e-05
1.43848e-08
2.44772e-05
2.03969e-08
2.44753e-05
2.51369e-08
2.44736e-05
2.98117e-08
2.44724e-05
3.38113e-08
2.44715e-05
3.78581e-08
2.44708e-05
4.10302e-08
2.44706e-05
4.33622e-08
2.44708e-05
4.55073e-08
2.44712e-05
4.67099e-08
2.4472e-05
4.75391e-08
2.4473e-05
4.75954e-08
2.44744e-05
4.72355e-08
4.63477e-08
2.44759e-05
2.64488e-05
-2.12325e-09
2.64467e-05
-5.3313e-09
2.64438e-05
-6.00667e-09
2.64407e-05
-3.70703e-09
2.64381e-05
1.82751e-09
2.64362e-05
8.80587e-09
2.64346e-05
1.59204e-08
2.64333e-05
2.17727e-08
2.64317e-05
2.67321e-08
2.64303e-05
3.11719e-08
2.64293e-05
3.48497e-08
2.64287e-05
3.84416e-08
2.64283e-05
4.14027e-08
2.64284e-05
4.33056e-08
2.64288e-05
4.50346e-08
2.64296e-05
4.59213e-08
2.64308e-05
4.64226e-08
2.64321e-05
4.6293e-08
2.64336e-05
4.56977e-08
4.46853e-08
2.64353e-05
2.85606e-05
-1.39481e-09
2.85585e-05
-3.24104e-09
2.85554e-05
-2.93817e-09
2.85524e-05
-6.43469e-10
2.85499e-05
4.285e-09
2.85481e-05
1.058e-08
2.85467e-05
1.73703e-08
2.85454e-05
2.30488e-08
2.85443e-05
2.78312e-08
2.85435e-05
3.20262e-08
2.85427e-05
3.56072e-08
2.85425e-05
3.86469e-08
2.85426e-05
4.13082e-08
2.85429e-05
4.29583e-08
2.85437e-05
4.42594e-08
2.85447e-05
4.4908e-08
2.85461e-05
4.50672e-08
2.85476e-05
4.47593e-08
2.85493e-05
4.3977e-08
4.2853e-08
2.85512e-05
3.08409e-05
-5.8872e-10
3.08388e-05
-1.1434e-09
3.0836e-05
-1.56554e-10
3.08331e-05
2.28824e-09
3.08305e-05
6.85178e-09
3.08288e-05
1.22494e-08
3.08277e-05
1.84661e-08
3.08269e-05
2.39114e-08
3.08261e-05
2.86079e-08
3.08255e-05
3.26259e-08
3.08252e-05
3.59334e-08
3.08253e-05
3.8535e-08
3.08258e-05
4.08128e-08
3.08265e-05
4.22143e-08
3.08276e-05
4.3215e-08
3.08289e-05
4.35715e-08
3.08304e-05
4.35245e-08
3.08322e-05
4.30134e-08
3.08341e-05
4.20899e-08
4.08538e-08
3.08361e-05
3.33034e-05
1.49317e-10
3.33015e-05
7.65624e-10
3.32988e-05
2.47359e-09
3.32961e-05
5.0637e-09
3.32936e-05
9.28506e-09
3.3292e-05
1.38368e-08
3.32911e-05
1.93975e-08
3.32905e-05
2.44938e-08
3.32901e-05
2.89805e-08
3.329e-05
3.27669e-08
3.32901e-05
3.58387e-08
3.32907e-05
3.7918e-08
3.32916e-05
3.99545e-08
3.32927e-05
4.10725e-08
3.32941e-05
4.18773e-08
3.32956e-05
4.19766e-08
3.32975e-05
4.17151e-08
3.32994e-05
4.10501e-08
3.33015e-05
4.00008e-08
3.87289e-08
3.33036e-05
3.59624e-05
8.83824e-10
3.59607e-05
2.50446e-09
3.59582e-05
4.97378e-09
3.59557e-05
7.5344e-09
3.59537e-05
1.13092e-08
3.59522e-05
1.52594e-08
3.59515e-05
2.01463e-08
3.59512e-05
2.47952e-08
3.59512e-05
2.89735e-08
3.59516e-05
3.23206e-08
3.59522e-05
3.53006e-08
3.59531e-05
3.6986e-08
3.59543e-05
3.87672e-08
3.59557e-05
3.96751e-08
3.59574e-05
4.01655e-08
3.59593e-05
4.0084e-08
3.59614e-05
3.96061e-08
3.59636e-05
3.88645e-08
3.59659e-05
3.77176e-08
3.64353e-08
3.59682e-05
3.88338e-05
1.53729e-09
3.88321e-05
4.17964e-09
3.88301e-05
7.04217e-09
3.8828e-05
9.57663e-09
3.88262e-05
1.31507e-08
3.88249e-05
1.65614e-08
3.88243e-05
2.06881e-08
3.88245e-05
2.46672e-08
3.88249e-05
2.84983e-08
3.88258e-05
3.14605e-08
3.88268e-05
3.42532e-08
3.88281e-05
3.56857e-08
3.88298e-05
3.70797e-08
3.88317e-05
3.78427e-08
3.88337e-05
3.81191e-08
3.88359e-05
3.78929e-08
3.88382e-05
3.72768e-08
3.88407e-05
3.64317e-08
3.88431e-05
3.52665e-08
3.39716e-08
3.88456e-05
4.19344e-05
2.14724e-09
4.19329e-05
5.69429e-09
4.19311e-05
8.84603e-09
4.19293e-05
1.13571e-08
4.1928e-05
1.4478e-08
4.19272e-05
1.7351e-08
4.1927e-05
2.0898e-08
4.19276e-05
2.40798e-08
4.19284e-05
2.76776e-08
4.19295e-05
3.03239e-08
4.19312e-05
3.25583e-08
4.1933e-05
3.39288e-08
4.19349e-05
3.51289e-08
4.19371e-05
3.56382e-08
4.19395e-05
3.57959e-08
4.1942e-05
3.54006e-08
4.19445e-05
3.47375e-08
4.19471e-05
3.38091e-08
4.19497e-05
3.26555e-08
3.13662e-08
4.19523e-05
4.52826e-05
2.67093e-09
4.52815e-05
6.81314e-09
4.52797e-05
1.06283e-08
4.52784e-05
1.27338e-08
4.52776e-05
1.52175e-08
4.52774e-05
1.75943e-08
4.52775e-05
2.07537e-08
4.52782e-05
2.33586e-08
4.52796e-05
2.63433e-08
4.52813e-05
2.86177e-08
4.52833e-05
3.0532e-08
4.52855e-05
3.17089e-08
4.52879e-05
3.27921e-08
4.52905e-05
3.30102e-08
4.52932e-05
3.30939e-08
4.52959e-05
3.26668e-08
4.52987e-05
3.19493e-08
4.53015e-05
3.10191e-08
4.53043e-05
2.98727e-08
2.86252e-08
4.5307e-05
4.88982e-05
3.11935e-09
4.88971e-05
7.87333e-09
4.88961e-05
1.16097e-08
4.88953e-05
1.35195e-08
4.88947e-05
1.58598e-08
4.88948e-05
1.7482e-08
4.88955e-05
2.00171e-08
4.88967e-05
2.22086e-08
4.88984e-05
2.45917e-08
4.89007e-05
2.63675e-08
4.8903e-05
2.8201e-08
4.89056e-05
2.91066e-08
4.89084e-05
2.99701e-08
4.89113e-05
3.01653e-08
4.89143e-05
3.0048e-08
4.89174e-05
2.95853e-08
4.89205e-05
2.88734e-08
4.89235e-05
2.79744e-08
4.89265e-05
2.6946e-08
2.57529e-08
4.89293e-05
5.28025e-05
3.34566e-09
5.28019e-05
8.45244e-09
5.28012e-05
1.23519e-08
5.28007e-05
1.39943e-08
5.28005e-05
1.60058e-08
5.28011e-05
1.69406e-08
5.28024e-05
1.87432e-08
5.28042e-05
2.03843e-08
5.28063e-05
2.24492e-08
5.28088e-05
2.38524e-08
5.28116e-05
2.54396e-08
5.28146e-05
2.60978e-08
5.28178e-05
2.6731e-08
5.28211e-05
2.69342e-08
5.28244e-05
2.67591e-08
5.28277e-05
2.62872e-08
5.28309e-05
2.5622e-08
5.28342e-05
2.47241e-08
5.28373e-05
2.38065e-08
2.26983e-08
5.28404e-05
5.70184e-05
3.48454e-09
5.70183e-05
8.58034e-09
5.70179e-05
1.26948e-08
5.70179e-05
1.4026e-08
5.70185e-05
1.53609e-08
5.70196e-05
1.58888e-08
5.70213e-05
1.70582e-08
5.70235e-05
1.81437e-08
5.7026e-05
1.99456e-08
5.7029e-05
2.08103e-08
5.70322e-05
2.227e-08
5.70355e-05
2.28529e-08
5.70389e-05
2.32919e-08
5.70425e-05
2.3371e-08
5.7046e-05
2.3199e-08
5.70496e-05
2.26991e-08
5.70531e-05
2.21078e-08
5.70565e-05
2.13177e-08
5.70599e-05
2.04744e-08
1.94592e-08
5.70631e-05
6.15711e-05
3.31633e-09
6.15714e-05
8.29026e-09
6.1572e-05
1.21259e-08
6.15726e-05
1.33422e-08
6.15736e-05
1.43837e-08
6.1575e-05
1.44708e-08
6.15768e-05
1.52687e-08
6.15794e-05
1.55599e-08
6.15825e-05
1.68982e-08
6.15858e-05
1.74889e-08
6.15895e-05
1.85856e-08
6.1593e-05
1.92672e-08
6.15969e-05
1.94187e-08
6.16008e-05
1.95078e-08
6.16047e-05
1.93077e-08
6.16085e-05
1.89039e-08
6.16122e-05
1.83908e-08
6.16158e-05
1.76769e-08
6.16193e-05
1.7022e-08
1.61569e-08
6.16226e-05
6.64873e-05
2.83133e-09
6.64886e-05
6.96478e-09
6.64902e-05
1.05544e-08
6.6492e-05
1.15371e-08
6.64938e-05
1.25485e-08
6.64958e-05
1.25426e-08
6.64977e-05
1.32897e-08
6.65003e-05
1.30271e-08
6.65031e-05
1.40554e-08
6.65062e-05
1.44292e-08
6.65099e-05
1.4821e-08
6.65137e-05
1.5524e-08
6.65176e-05
1.54634e-08
6.65217e-05
1.54072e-08
6.65258e-05
1.52733e-08
6.65299e-05
1.48049e-08
6.65338e-05
1.44804e-08
6.65377e-05
1.37359e-08
6.65415e-05
1.32489e-08
1.24243e-08
6.65452e-05
7.17956e-05
2.34521e-09
7.17973e-05
5.27821e-09
7.17998e-05
8.0804e-09
7.18025e-05
8.79608e-09
7.18053e-05
9.76958e-09
7.18084e-05
9.50172e-09
7.18115e-05
1.01911e-08
7.18144e-05
1.00766e-08
7.18178e-05
1.07083e-08
7.18212e-05
1.09874e-08
7.18248e-05
1.11875e-08
7.18289e-05
1.15048e-08
7.18327e-05
1.16006e-08
7.18368e-05
1.13432e-08
7.18408e-05
1.12679e-08
7.18449e-05
1.07092e-08
7.18489e-05
1.04572e-08
7.18529e-05
9.76786e-09
7.18569e-05
9.23249e-09
8.47274e-09
7.18608e-05
7.75285e-05
7.75311e-05
7.75347e-05
7.75386e-05
7.75424e-05
7.75463e-05
7.75506e-05
7.75547e-05
7.7559e-05
7.75635e-05
7.75681e-05
7.75729e-05
7.75775e-05
7.75822e-05
7.75867e-05
7.75911e-05
7.75954e-05
7.75993e-05
7.76029e-05
7.76061e-05
3.77533e-06
6.74582e-08
3.68069e-06
9.46406e-08
3.58076e-06
9.99273e-08
3.48245e-06
9.83115e-08
3.38438e-06
9.80761e-08
3.28502e-06
9.93596e-08
3.18378e-06
1.01232e-07
3.08067e-06
1.03117e-07
2.97579e-06
1.04878e-07
2.8692e-06
1.0659e-07
2.76082e-06
1.08381e-07
2.65058e-06
1.10239e-07
2.53853e-06
1.12051e-07
2.42468e-06
1.13845e-07
2.30902e-06
1.15666e-07
2.19163e-06
1.1739e-07
2.07262e-06
1.19006e-07
1.95226e-06
1.20364e-07
1.83082e-06
1.21437e-07
1.70892e-06
1.219e-07
1.58759e-06
1.2133e-07
1.46811e-06
1.19477e-07
1.35261e-06
1.155e-07
1.2435e-06
1.09119e-07
1.14398e-06
9.95143e-08
1.05761e-06
8.63713e-08
9.87525e-07
7.0084e-08
9.34992e-07
5.25337e-08
8.98088e-07
3.69038e-08
8.72745e-07
2.53428e-08
8.54986e-07
1.77593e-08
8.41969e-07
1.30169e-08
8.31563e-07
1.04056e-08
8.22557e-07
9.00581e-09
8.14161e-07
8.3965e-09
8.05744e-07
8.41714e-09
7.9692e-07
8.82348e-09
7.87542e-07
9.37839e-09
7.77654e-07
9.8876e-09
7.67292e-07
1.0362e-08
7.56618e-07
1.06739e-08
7.45756e-07
1.08625e-08
7.34799e-07
1.09566e-08
7.23814e-07
1.09847e-08
7.12852e-07
1.09627e-08
7.02023e-07
1.08284e-08
6.91293e-07
1.073e-08
6.80714e-07
1.05794e-08
6.70304e-07
1.04101e-08
6.60108e-07
1.01961e-08
6.50116e-07
9.99133e-09
6.4035e-07
9.76611e-09
6.30932e-07
9.41795e-09
6.21779e-07
9.153e-09
6.12868e-07
8.91164e-09
6.04155e-07
8.71276e-09
5.95668e-07
8.48745e-09
5.87411e-07
8.25674e-09
5.7932e-07
8.09112e-09
5.71545e-07
7.77494e-09
5.64006e-07
7.53905e-09
5.5667e-07
7.3354e-09
5.496e-07
7.0703e-09
5.42685e-07
6.9147e-09
5.35962e-07
6.7231e-09
5.29433e-07
6.52873e-09
5.23066e-07
6.36709e-09
5.16923e-07
6.14302e-09
5.10949e-07
5.97453e-09
5.05222e-07
5.72634e-09
4.9964e-07
5.58293e-09
4.94248e-07
5.39174e-09
4.89081e-07
5.16724e-09
4.83999e-07
5.08186e-09
4.79146e-07
4.85237e-09
4.74552e-07
4.5945e-09
4.70041e-07
4.51062e-09
4.65803e-07
4.23802e-09
4.61746e-07
4.05761e-09
4.57799e-07
3.94694e-09
4.5414e-07
3.65867e-09
4.50701e-07
3.43854e-09
4.4735e-07
3.35111e-09
4.44326e-07
3.0242e-09
4.41452e-07
2.87405e-09
4.38614e-07
2.83831e-09
4.36075e-07
2.53908e-09
4.33861e-07
2.21327e-09
4.31633e-07
2.22837e-09
4.29524e-07
2.10953e-09
4.27675e-07
1.84811e-09
4.26047e-07
1.62794e-09
4.24409e-07
1.63843e-09
4.22973e-07
1.43639e-09
4.21631e-07
1.34189e-09
4.20423e-07
1.20743e-09
4.19263e-07
1.16031e-09
4.18245e-07
1.01835e-09
4.17134e-07
1.11045e-09
1.39241e-09
4.16497e-06
6.20375e-08
4.16875e-06
9.0859e-08
4.16321e-06
1.05464e-07
4.15329e-06
1.0823e-07
4.14245e-06
1.08919e-07
4.13039e-06
1.11417e-07
4.11604e-06
1.1559e-07
4.09881e-06
1.20337e-07
4.07862e-06
1.25069e-07
4.05544e-06
1.29775e-07
4.02914e-06
1.34675e-07
3.99957e-06
1.39813e-07
3.96654e-06
1.45076e-07
3.92993e-06
1.50458e-07
3.88954e-06
1.56059e-07
3.84522e-06
1.61713e-07
3.79681e-06
1.67407e-07
3.74422e-06
1.72956e-07
3.68739e-06
1.78275e-07
3.62627e-06
1.83014e-07
3.56116e-06
1.86443e-07
3.49246e-06
1.88179e-07
3.42102e-06
1.86942e-07
3.34789e-06
1.82241e-07
3.27443e-06
1.72981e-07
3.20246e-06
1.58336e-07
3.13411e-06
1.38439e-07
3.07091e-06
1.15729e-07
3.01379e-06
9.40252e-08
2.96236e-06
7.67715e-08
2.9151e-06
6.5018e-08
2.87055e-06
5.75709e-08
2.82775e-06
5.32085e-08
2.78602e-06
5.07295e-08
2.74524e-06
4.91753e-08
2.70507e-06
4.8595e-08
2.66526e-06
4.86285e-08
2.62576e-06
4.88825e-08
2.58648e-06
4.91634e-08
2.54747e-06
4.93713e-08
2.50881e-06
4.93303e-08
2.47058e-06
4.9099e-08
2.43277e-06
4.87639e-08
2.39541e-06
4.8346e-08
2.3586e-06
4.77674e-08
2.32239e-06
4.7046e-08
2.28675e-06
4.63716e-08
2.25178e-06
4.55415e-08
2.21752e-06
4.46737e-08
2.18394e-06
4.37742e-08
2.15103e-06
4.28986e-08
2.11896e-06
4.18431e-08
2.08776e-06
4.06149e-08
2.05734e-06
3.95701e-08
2.02776e-06
3.84914e-08
1.99894e-06
3.75361e-08
1.97085e-06
3.65813e-08
1.94353e-06
3.55702e-08
1.9169e-06
3.47208e-08
1.89106e-06
3.36227e-08
1.86597e-06
3.26265e-08
1.8416e-06
3.17076e-08
1.81793e-06
3.07409e-08
1.7949e-06
2.99397e-08
1.7725e-06
2.91213e-08
1.75069e-06
2.83372e-08
1.72946e-06
2.75974e-08
1.70883e-06
2.67773e-08
1.68875e-06
2.6049e-08
1.66937e-06
2.51158e-08
1.65051e-06
2.44405e-08
1.63221e-06
2.36847e-08
1.61448e-06
2.2906e-08
1.59724e-06
2.23182e-08
1.58064e-06
2.14531e-08
1.56472e-06
2.05112e-08
1.5493e-06
1.99323e-08
1.53451e-06
1.9026e-08
1.5203e-06
1.82671e-08
1.5067e-06
1.75474e-08
1.49379e-06
1.65758e-08
1.48157e-06
1.56578e-08
1.46989e-06
1.50259e-08
1.45893e-06
1.39873e-08
1.44847e-06
1.33331e-08
1.43866e-06
1.26504e-08
1.42953e-06
1.16689e-08
1.42108e-06
1.06566e-08
1.41298e-06
1.03316e-08
1.40554e-06
9.55443e-09
1.39864e-06
8.74446e-09
1.39238e-06
7.88618e-09
1.38638e-06
7.63867e-09
1.38104e-06
6.77793e-09
1.37594e-06
6.44115e-09
1.37147e-06
5.67935e-09
1.36711e-06
5.51425e-09
1.36335e-06
4.78323e-09
1.35955e-06
4.90491e-09
5.22855e-09
4.49708e-06
6.04105e-08
4.50309e-06
8.48542e-08
4.50663e-06
1.01925e-07
4.50614e-06
1.08716e-07
4.50464e-06
1.10417e-07
4.50397e-06
1.12084e-07
4.5039e-06
1.15663e-07
4.50371e-06
1.2053e-07
4.50295e-06
1.25826e-07
4.50149e-06
1.31236e-07
4.49927e-06
1.36895e-07
4.49619e-06
1.42891e-07
4.49212e-06
1.49144e-07
4.48693e-06
1.55652e-07
4.48049e-06
1.62494e-07
4.47265e-06
1.6956e-07
4.46328e-06
1.76773e-07
4.45222e-06
1.84019e-07
4.43937e-06
1.91123e-07
4.42455e-06
1.97838e-07
4.40769e-06
2.03303e-07
4.38883e-06
2.07034e-07
4.36784e-06
2.07934e-07
4.345e-06
2.0508e-07
4.32032e-06
1.9766e-07
4.29415e-06
1.84508e-07
4.26693e-06
1.65654e-07
4.23939e-06
1.43271e-07
4.21253e-06
1.20889e-07
4.18695e-06
1.02346e-07
4.16246e-06
8.95083e-08
4.13835e-06
8.16809e-08
4.11419e-06
7.73661e-08
4.08974e-06
7.51888e-08
4.06486e-06
7.40508e-08
4.03954e-06
7.39142e-08
4.01366e-06
7.45113e-08
3.9872e-06
7.53385e-08
3.96007e-06
7.62958e-08
3.93227e-06
7.7172e-08
3.90384e-06
7.77578e-08
3.87482e-06
7.81169e-08
3.84524e-06
7.83454e-08
3.81508e-06
7.8512e-08
3.78444e-06
7.84057e-08
3.75334e-06
7.81478e-08
3.7218e-06
7.79111e-08
3.68988e-06
7.74587e-08
3.65765e-06
7.69016e-08
3.62515e-06
7.62797e-08
3.5923e-06
7.57427e-08
3.5593e-06
7.48441e-08
3.52621e-06
7.37063e-08
3.49303e-06
7.27517e-08
3.45976e-06
7.1755e-08
3.42649e-06
7.08075e-08
3.39324e-06
6.98356e-08
3.35997e-06
6.88413e-08
3.32681e-06
6.78824e-08
3.29381e-06
6.66189e-08
3.26095e-06
6.54898e-08
3.22837e-06
6.4284e-08
3.19598e-06
6.31297e-08
3.16383e-06
6.20902e-08
3.13202e-06
6.0928e-08
3.10047e-06
5.98916e-08
3.06922e-06
5.88506e-08
3.03841e-06
5.75853e-08
3.00791e-06
5.65492e-08
2.97793e-06
5.50904e-08
2.94846e-06
5.39175e-08
2.91946e-06
5.26851e-08
2.89092e-06
5.14463e-08
2.86298e-06
5.02534e-08
2.83561e-06
4.88198e-08
2.80898e-06
4.71474e-08
2.78303e-06
4.58785e-08
2.75777e-06
4.42893e-08
2.73316e-06
4.28739e-08
2.70953e-06
4.11826e-08
2.68661e-06
3.94912e-08
2.66459e-06
3.76805e-08
2.64353e-06
3.60855e-08
2.62344e-06
3.40749e-08
2.60389e-06
3.28863e-08
2.58554e-06
3.09959e-08
2.56821e-06
2.9004e-08
2.55182e-06
2.70479e-08
2.536e-06
2.61447e-08
2.52142e-06
2.41317e-08
2.5076e-06
2.25741e-08
2.49483e-06
2.06556e-08
2.48258e-06
1.98882e-08
2.47151e-06
1.78409e-08
2.46081e-06
1.71449e-08
2.4513e-06
1.51876e-08
2.44204e-06
1.47724e-08
2.43387e-06
1.29587e-08
2.42581e-06
1.2967e-08
1.26543e-08
4.85762e-06
6.02009e-08
4.86215e-06
8.03266e-08
4.8668e-06
9.72739e-08
4.86816e-06
1.07359e-07
4.86751e-06
1.11063e-07
4.86733e-06
1.12263e-07
4.86792e-06
1.15078e-07
4.86919e-06
1.19262e-07
4.87066e-06
1.24358e-07
4.87203e-06
1.29858e-07
4.87327e-06
1.35657e-07
4.87439e-06
1.41777e-07
4.87537e-06
1.48157e-07
4.87621e-06
1.54812e-07
4.87692e-06
1.61791e-07
4.87743e-06
1.69044e-07
4.87778e-06
1.76424e-07
4.87792e-06
1.8388e-07
4.87787e-06
1.91178e-07
4.87758e-06
1.98122e-07
4.877e-06
2.03883e-07
4.87615e-06
2.07882e-07
4.87476e-06
2.09327e-07
4.87265e-06
2.07192e-07
4.86959e-06
2.00715e-07
4.86522e-06
1.88887e-07
4.85922e-06
1.7165e-07
4.85167e-06
1.50817e-07
4.84322e-06
1.29345e-07
4.8346e-06
1.10969e-07
4.82625e-06
9.78585e-08
4.81791e-06
9.00133e-08
4.80941e-06
8.587e-08
4.80064e-06
8.39625e-08
4.79144e-06
8.32437e-08
4.78196e-06
8.34013e-08
4.77213e-06
8.43345e-08
4.76198e-06
8.54919e-08
4.75138e-06
8.6898e-08
4.74028e-06
8.82728e-08
4.72866e-06
8.93764e-08
4.71648e-06
9.02945e-08
4.70376e-06
9.10658e-08
4.69042e-06
9.18513e-08
4.67653e-06
9.22938e-08
4.66204e-06
9.26357e-08
4.64695e-06
9.30041e-08
4.63127e-06
9.31438e-08
4.61497e-06
9.31991e-08
4.59813e-06
9.31183e-08
4.58063e-06
9.32422e-08
4.56261e-06
9.28638e-08
4.54405e-06
9.22654e-08
4.52495e-06
9.18526e-08
4.50528e-06
9.143e-08
4.48503e-06
9.1053e-08
4.46429e-06
9.05782e-08
4.44297e-06
9.01555e-08
4.42118e-06
8.96762e-08
4.39898e-06
8.8822e-08
4.37625e-06
8.82113e-08
4.35319e-06
8.73528e-08
4.32965e-06
8.66682e-08
4.30571e-06
8.60291e-08
4.28142e-06
8.52194e-08
4.25677e-06
8.4536e-08
4.23179e-06
8.3834e-08
4.20654e-06
8.28301e-08
4.181e-06
8.20937e-08
4.1553e-06
8.07885e-08
4.12938e-06
7.98389e-08
4.10342e-06
7.86414e-08
4.07723e-06
7.76405e-08
4.05101e-06
7.64704e-08
4.02481e-06
7.50255e-08
3.99866e-06
7.32956e-08
3.97257e-06
7.19665e-08
3.94678e-06
7.00797e-08
3.92097e-06
6.86825e-08
3.89566e-06
6.64933e-08
3.87065e-06
6.45049e-08
3.84602e-06
6.23102e-08
3.82183e-06
6.02788e-08
3.79846e-06
5.74435e-08
3.77515e-06
5.61916e-08
3.75274e-06
5.3405e-08
3.7311e-06
5.06504e-08
3.71029e-06
4.7855e-08
3.68974e-06
4.66987e-08
3.67042e-06
4.34467e-08
3.65168e-06
4.13104e-08
3.63403e-06
3.83113e-08
3.61675e-06
3.71666e-08
3.60085e-06
3.37397e-08
3.58518e-06
3.28184e-08
3.57092e-06
2.94489e-08
3.55688e-06
2.88087e-08
3.54418e-06
2.56538e-08
3.53158e-06
2.55708e-08
2.40478e-08
5.24727e-06
6.02361e-08
5.25064e-06
7.6954e-08
5.25477e-06
9.31474e-08
5.2573e-06
1.04827e-07
5.25776e-06
1.10606e-07
5.25758e-06
1.12439e-07
5.25787e-06
1.14784e-07
5.259e-06
1.18136e-07
5.26065e-06
1.22704e-07
5.2624e-06
1.2811e-07
5.26408e-06
1.33983e-07
5.26573e-06
1.40126e-07
5.26736e-06
1.46527e-07
5.269e-06
1.5317e-07
5.2707e-06
1.60089e-07
5.27248e-06
1.67269e-07
5.27437e-06
1.7453e-07
5.27643e-06
1.81819e-07
5.27869e-06
1.8892e-07
5.28124e-06
1.95571e-07
5.28403e-06
2.0109e-07
5.2871e-06
2.04813e-07
5.29026e-06
2.06169e-07
5.29325e-06
2.042e-07