/*--------------------------------*- C++ -*----------------------------------*\
| =========                 |                                                 |
| \\      /  F ield         | OpenFOAM: The Open Source CFD Toolbox           |
|  \\    /   O peration     | Version:  v2106                                 |
|   \\  /    A nd           | Website:  www.openfoam.com                      |
|    \\/     M anipulation  |                                                 |
\*---------------------------------------------------------------------------*/
FoamFile
{
    version     2.0;
    format      ascii;
    arch        "LSB;label=32;scalar=64";
    class       volVectorField;
    location    "1.1";
    object      U;
}
// * * * * * * * * * * * * * * * * * * * * * * * * * * * * * * * * * * * * * //

dimensions      [0 1 -1 0 0 0 0];

internalField   nonuniform List<vector> 
4800
(
(0.960608 0.000196852 0)
(1.03906 -0.000196521 0)
(0.964112 -6.62191e-05 0)
(1.03523 -0.000220039 0)
(0.967615 -4.07329e-06 0)
(1.0319 -0.000359122 0)
(0.970876 -6.83023e-06 0)
(1.02864 -0.000449587 0)
(0.973908 -8.75724e-05 0)
(1.02524 -0.000496091 0)
(0.976574 -2.30889e-05 0)
(1.02228 -0.000500524 0)
(0.979087 -3.99029e-05 0)
(1.0194 -0.000516567 0)
(0.981259 -3.66287e-05 0)
(1.01663 -0.00051907 0)
(0.982929 -4.72612e-05 0)
(1.01363 -0.00054709 0)
(0.983835 0.000192936 0)
(1.01041 0.000603727 0)
(0.982911 0.000128558 0)
(1.01476 -0.000148555 0)
(0.986854 -0.000101914 0)
(1.01119 -0.000199765 0)
(0.990178 -4.2516e-05 0)
(1.00849 -0.000367066 0)
(0.992828 -2.75355e-05 0)
(1.00622 -0.000495228 0)
(0.994882 -8.5225e-05 0)
(1.00411 -0.00053993 0)
(0.996271 -4.3048e-05 0)
(1.00263 -0.000585626 0)
(0.997324 -7.15182e-05 0)
(1.00133 -0.000620538 0)
(0.997926 -6.02203e-05 0)
(1.00019 -0.000609744 0)
(0.997989 4.1078e-05 0)
(0.998845 -0.000313688 0)
(0.997576 0.000910175 0)
(0.99743 0.00184455 0)
(0.996014 0.000197019 0)
(1.00291 -0.000216877 0)
(0.997591 -1.97547e-05 0)
(1.00164 -0.000256023 0)
(0.998593 1.86263e-05 0)
(1.0011 -0.000372299 0)
(0.999255 -4.71694e-06 0)
(1.00078 -0.000419324 0)
(0.999673 -0.000127365 0)
(1.00031 -0.000404884 0)
(0.999745 -0.000144995 0)
(1.0001 -0.00037542 0)
(0.999738 -0.000215252 0)
(0.999769 -0.00041982 0)
(0.999512 -0.000228633 0)
(0.999353 -0.000318385 0)
(0.999 -2.22349e-05 0)
(0.99863 0.000344171 0)
(0.99828 0.00125188 0)
(0.997809 0.0023124 0)
(0.999438 0.000182934 0)
(1.0005 -0.000212558 0)
(0.999947 -6.55983e-05 0)
(1.00019 -0.000239678 0)
(1.00013 -5.75787e-05 0)
(1.0003 -0.000337718 0)
(1.00025 -0.000106479 0)
(1.0004 -0.000344517 0)
(1.00035 -0.000252003 0)
(1.00023 -0.000315586 0)
(1.00025 -0.000266203 0)
(1.0002 -0.000337896 0)
(1.00012 -0.000356041 0)
(0.999956 -0.000387993 0)
(0.999832 -0.000342148 0)
(0.999589 -0.000200003 0)
(0.999313 2.39571e-05 0)
(0.998982 0.000656076 0)
(0.998701 0.00151053 0)
(0.998265 0.00245527 0)
(0.999967 0.00017533 0)
(1.00023 -0.000201566 0)
(1.00028 -6.80182e-05 0)
(1.00011 -0.0001964 0)
(1.00035 -9.25348e-05 0)
(1.00031 -0.00025979 0)
(1.0004 -0.000178571 0)
(1.00045 -0.000270407 0)
(1.00048 -0.000284032 0)
(1.00032 -0.000315026 0)
(1.00038 -0.000291098 0)
(1.0003 -0.000384232 0)
(1.00026 -0.00036336 0)
(1.00008 -0.000404319 0)
(0.999985 -0.000277758 0)
(0.999756 -0.000115552 0)
(0.999539 0.0003374 0)
(0.999269 0.0011271 0)
(0.999009 0.00185406 0)
(0.998595 0.00266312 0)
(1.00002 0.000162087 0)
(1.0002 -0.000171402 0)
(1.00032 -0.000136013 0)
(1.00014 -0.000145909 0)
(1.00038 -0.000182943 0)
(1.00033 -0.000193305 0)
(1.00043 -0.000259393 0)
(1.00046 -0.000250656 0)
(1.0005 -0.000339967 0)
(1.00035 -0.00033508 0)
(1.00041 -0.00035579 0)
(1.00034 -0.000389692 0)
(1.0003 -0.000408885 0)
(1.00014 -0.000370306 0)
(1.00006 -0.000212188 0)
(0.999872 0.000141952 0)
(0.999733 0.000780747 0)
(0.99947 0.00145405 0)
(0.999223 0.00204427 0)
(0.998835 0.0027335 0)
(1.00002 0.000148638 0)
(1.00019 -0.000141701 0)
(1.00032 -0.000193106 0)
(1.00016 -9.89495e-05 0)
(1.00039 -0.000225249 0)
(1.00034 -0.000175446 0)
(1.00043 -0.000247811 0)
(1.00047 -0.000275509 0)
(1.0005 -0.000366902 0)
(1.00036 -0.000354187 0)
(1.00042 -0.000387406 0)
(1.00035 -0.000399246 0)
(1.00031 -0.000407692 0)
(1.00018 -0.000288623 0)
(1.00013 9.25754e-06 0)
(1.00002 0.000608998 0)
(0.999874 0.0011044 0)
(0.99962 0.00161512 0)
(0.999389 0.00213765 0)
(0.999042 0.00275619 0)
(1.00001 0.00013032 0)
(1.00019 -9.88229e-05 0)
(1.00031 -0.000255752 0)
(1.00018 -8.0637e-05 0)
(1.00039 -0.000225227 0)
(1.00036 -0.000227271 0)
(1.00043 -0.000235957 0)
(1.00048 -0.000316857 0)
(1.00049 -0.000408535 0)
(1.00037 -0.000409656 0)
(1.00042 -0.000404636 0)
(1.00037 -0.000415046 0)
(1.00033 -0.000317616 0)
(1.00025 -9.41918e-05 0)
(1.00025 0.000418866 0)
(1.00014 0.000856272 0)
(0.99998 0.00121986 0)
(0.999761 0.00165401 0)
(0.999555 0.0021655 0)
(0.999251 0.0027542 0)
(1.00001 0.000110019 0)
(1.00019 -6.04559e-05 0)
(1.00031 -0.000285906 0)
(1.00019 -0.000105545 0)
(1.00038 -0.000198895 0)
(1.00038 -0.000266258 0)
(1.00042 -0.000276683 0)
(1.00048 -0.000337549 0)
(1.00049 -0.00044069 0)
(1.00038 -0.000440046 0)
(1.00042 -0.000414309 0)
(1.00039 -0.000356564 0)
(1.00038 -0.000125015 0)
(1.00035 0.000309175 0)
(1.00034 0.000652059 0)
(1.00023 0.000949609 0)
(1.00009 0.00127777 0)
(0.999906 0.00170354 0)
(0.999732 0.00220887 0)
(0.999465 0.0027756 0)
(1 0.000105608 0)
(1.00018 -4.63682e-05 0)
(1.0003 -0.000262031 0)
(1.00021 -0.000174716 0)
(1.00038 -0.000204305 0)
(1.00038 -0.000284465 0)
(1.00043 -0.000321595 0)
(1.00048 -0.00039768 0)
(1.00049 -0.000444908 0)
(1.00039 -0.000469191 0)
(1.00043 -0.000370153 0)
(1.00044 -0.000198257 0)
(1.00048 0.000210712 0)
(1.00043 0.000530365 0)
(1.00041 0.000751634 0)
(1.00031 0.00101766 0)
(1.0002 0.00135547 0)
(1.00006 0.00178045 0)
(0.999916 0.00226972 0)
(0.999678 0.00280948 0)
(1 7.3855e-05 0)
(1.00017 -6.66716e-06 0)
(1.0003 -0.000259519 0)
(1.00022 -0.000196759 0)
(1.00038 -0.000285179 0)
(1.00038 -0.000268846 0)
(1.00042 -0.000363265 0)
(1.00048 -0.000434947 0)
(1.00049 -0.000476898 0)
(1.00041 -0.000397551 0)
(1.00048 -0.000241791 0)
(1.00053 8.60943e-05 0)
(1.00055 0.000367685 0)
(1.00049 0.000588175 0)
(1.00048 0.000796673 0)
(1.00041 0.00107732 0)
(1.00032 0.00142641 0)
(1.00022 0.00184974 0)
(1.00011 0.00231792 0)
(0.999895 0.00282711 0)
(1 7.35402e-05 0)
(1.00016 -2.8104e-06 0)
(1.00029 -0.000237282 0)
(1.00022 -0.000218851 0)
(1.00038 -0.000352486 0)
(1.00039 -0.000346353 0)
(1.00042 -0.000343022 0)
(1.00048 -0.000461531 0)
(1.00051 -0.00045768 0)
(1.00045 -0.000283208 0)
(1.00054 3.14736e-05 0)
(1.00058 0.000247513 0)
(1.0006 0.000426616 0)
(1.00055 0.000637144 0)
(1.00055 0.000864563 0)
(1.00051 0.00115534 0)
(1.00046 0.00151053 0)
(1.00038 0.00192327 0)
(1.0003 0.00236882 0)
(1.00011 0.00284169 0)
(1.00001 4.53279e-05 0)
(1.00014 1.58454e-05 0)
(1.00028 -0.000250421 0)
(1.00022 -0.000191756 0)
(1.00038 -0.000413074 0)
(1.00039 -0.000439049 0)
(1.00042 -0.000381298 0)
(1.00048 -0.000381157 0)
(1.00054 -0.000363141 0)
(1.00053 -0.000103128 0)
(1.00061 0.000161337 0)
(1.00063 0.000329431 0)
(1.00065 0.000496274 0)
(1.00062 0.00071479 0)
(1.00064 0.000956323 0)
(1.00062 0.00125066 0)
(1.0006 0.0016027 0)
(1.00055 0.00200124 0)
(1.0005 0.00242169 0)
(1.00033 0.00285957 0)
(1.00001 3.89369e-05 0)
(1.00013 1.31263e-05 0)
(1.00027 -0.000267526 0)
(1.00021 -0.000200816 0)
(1.00036 -0.000396239 0)
(1.00041 -0.00052876 0)
(1.00044 -0.000429615 0)
(1.00049 -0.000293222 0)
(1.00058 -0.000141106 0)
(1.00058 2.50025e-05 0)
(1.00065 0.000204756 0)
(1.00068 0.000371307 0)
(1.00072 0.000548331 0)
(1.0007 0.000779653 0)
(1.00074 0.00102848 0)
(1.00075 0.0013216 0)
(1.00075 0.0016628 0)
(1.00073 0.00204765 0)
(1.00069 0.0024425 0)
(1.00054 0.00284735 0)
(1.00001 1.64366e-05 0)
(1.00011 2.01646e-05 0)
(1.00026 -0.000278616 0)
(1.00021 -0.000237154 0)
(1.00035 -0.000351166 0)
(1.00041 -0.000508978 0)
(1.00048 -0.00044263 0)
(1.00055 -0.000236852 0)
(1.00062 -1.50365e-05 0)
(1.00062 0.000154827 0)
(1.00071 0.000294534 0)
(1.00074 0.000444858 0)
(1.00079 0.000622028 0)
(1.00079 0.000856886 0)
(1.00084 0.00110845 0)
(1.00088 0.00139884 0)
(1.00091 0.00172791 0)
(1.00091 0.00209488 0)
(1.00089 0.00246756 0)
(1.00076 0.00284158 0)
(1.00002 7.83216e-06 0)
(1.00009 2.66035e-06 0)
(1.00025 -0.000258959 0)
(1.00021 -0.000308169 0)
(1.00034 -0.000323122 0)
(1.0004 -0.000418364 0)
(1.00051 -0.000350246 0)
(1.0006 -0.000201386 0)
(1.00068 6.34718e-06 0)
(1.00067 0.000228635 0)
(1.00075 0.000384655 0)
(1.00079 0.000526571 0)
(1.00087 0.000696337 0)
(1.00088 0.000930877 0)
(1.00096 0.00118613 0)
(1.00101 0.00147001 0)
(1.00108 0.00178651 0)
(1.0011 0.00213489 0)
(1.0011 0.0024821 0)
(1.00097 0.00282735 0)
(1.00001 -3.98994e-06 0)
(1.00008 -3.82141e-05 0)
(1.00024 -0.000245933 0)
(1.00021 -0.000322454 0)
(1.00035 -0.000340526 0)
(1.00041 -0.000322383 0)
(1.00055 -0.000235638 0)
(1.00065 -0.000123824 0)
(1.00075 2.41646e-05 0)
(1.00074 0.000245131 0)
(1.00081 0.000440906 0)
(1.00085 0.00059816 0)
(1.00094 0.000768085 0)
(1.00098 0.000998632 0)
(1.00107 0.00125403 0)
(1.00116 0.00153095 0)
(1.00125 0.00183116 0)
(1.00129 0.00215919 0)
(1.0013 0.00248347 0)
(1.00119 0.0028029 0)
(1.00002 -1.3711e-05 0)
(1.00007 -6.77678e-05 0)
(1.00022 -0.000252384 0)
(1.00022 -0.000301767 0)
(1.00036 -0.000327823 0)
(1.00046 -0.000273869 0)
(1.00058 -0.000128901 0)
(1.00069 -1.28239e-05 0)
(1.00081 8.25971e-05 0)
(1.00082 0.000270053 0)
(1.00089 0.000473393 0)
(1.00093 0.000655193 0)
(1.00104 0.000831298 0)
(1.0011 0.00105867 0)
(1.00121 0.00131228 0)
(1.00131 0.00158498 0)
(1.00142 0.00187019 0)
(1.00149 0.00217441 0)
(1.00151 0.00247829 0)
(1.0014 0.00277153 0)
(1.00002 -2.78889e-05 0)
(1.00006 -8.24851e-05 0)
(1.00022 -0.000274432 0)
(1.00023 -0.00028077 0)
(1.00038 -0.000263894 0)
(1.0005 -0.000227998 0)
(1.00063 -6.81875e-05 0)
(1.00074 8.17519e-05 0)
(1.00086 0.000171785 0)
(1.00089 0.000323853 0)
(1.00097 0.000514557 0)
(1.00101 0.000708137 0)
(1.00113 0.000891042 0)
(1.00122 0.00111526 0)
(1.00135 0.0013634 0)
(1.00147 0.00162835 0)
(1.0016 0.00190189 0)
(1.00169 0.00218557 0)
(1.00172 0.00246989 0)
(1.00162 0.00273996 0)
(1.00003 -3.62342e-05 0)
(1.00004 -9.64333e-05 0)
(1.00022 -0.00028057 0)
(1.00025 -0.000275609 0)
(1.00041 -0.00019694 0)
(1.00054 -0.000150564 0)
(1.0007 -2.70331e-05 0)
(1.0008 0.000133376 0)
(1.00091 0.00025195 0)
(1.00096 0.000390543 0)
(1.00106 0.000563891 0)
(1.00111 0.000759578 0)
(1.00125 0.000948433 0)
(1.00135 0.00116774 0)
(1.0015 0.00140795 0)
(1.00164 0.00165868 0)
(1.00179 0.00191916 0)
(1.00189 0.0021835 0)
(1.00194 0.00244747 0)
(1.00184 0.0026979 0)
(1.00002 -4.08441e-05 0)
(1.00004 -0.000113133 0)
(1.00022 -0.000260652 0)
(1.00028 -0.000265824 0)
(1.00045 -0.000146008 0)
(1.00058 -6.44802e-05 0)
(1.00076 2.95991e-05 0)
(1.00087 0.000172818 0)
(1.00099 0.000302077 0)
(1.00104 0.000447159 0)
(1.00115 0.000609333 0)
(1.00121 0.000801957 0)
(1.00137 0.000993469 0)
(1.00149 0.00120927 0)
(1.00166 0.00144243 0)
(1.00181 0.00168252 0)
(1.00198 0.00192919 0)
(1.00209 0.00217526 0)
(1.00215 0.00241776 0)
(1.00206 0.00264922 0)
(1.00003 -4.24319e-05 0)
(1.00004 -0.000121443 0)
(1.00023 -0.00022915 0)
(1.00032 -0.000237712 0)
(1.00051 -0.000120736 0)
(1.00063 -4.58211e-06 0)
(1.00081 0.000100036 0)
(1.00093 0.00022186 0)
(1.00106 0.000348333 0)
(1.00113 0.000499635 0)
(1.00125 0.000662372 0)
(1.00133 0.000847286 0)
(1.00149 0.00104197 0)
(1.00163 0.00124929 0)
(1.00182 0.00147147 0)
(1.00199 0.0017019 0)
(1.00217 0.00193066 0)
(1.0023 0.00215927 0)
(1.00237 0.00238233 0)
(1.00228 0.00259489 0)
(1.00002 -4.13433e-05 0)
(1.00004 -0.000120048 0)
(1.00024 -0.000197634 0)
(1.00036 -0.000195 0)
(1.00056 -9.39694e-05 0)
(1.00069 3.49024e-05 0)
(1.00088 0.000153008 0)
(1.001 0.000272897 0)
(1.00114 0.00039875 0)
(1.00122 0.000543907 0)
(1.00136 0.00070683 0)
(1.00145 0.000891412 0)
(1.00162 0.00108087 0)
(1.00179 0.00127977 0)
(1.00198 0.00149092 0)
(1.00217 0.00170743 0)
(1.00236 0.00192387 0)
(1.0025 0.0021345 0)
(1.00258 0.00234004 0)
(1.00249 0.00253465 0)
(1.00002 -3.64353e-05 0)
(1.00005 -0.00011134 0)
(1.00025 -0.00016295 0)
(1.0004 -0.000150179 0)
(1.00062 -6.14494e-05 0)
(1.00077 6.28243e-05 0)
(1.00095 0.000192613 0)
(1.00107 0.000314064 0)
(1.00122 0.000443857 0)
(1.00132 0.00058624 0)
(1.00147 0.0007437 0)
(1.00158 0.000929608 0)
(1.00176 0.00111215 0)
(1.00194 0.00130432 0)
(1.00216 0.00150424 0)
(1.00236 0.0017031 0)
(1.00256 0.00190775 0)
(1.00271 0.00209902 0)
(1.00279 0.00228846 0)
(1.00271 0.00246473 0)
(1.00002 -3.20334e-05 0)
(1.00005 -9.36463e-05 0)
(1.00026 -0.000124148 0)
(1.00043 -0.000108423 0)
(1.00069 -2.9097e-05 0)
(1.00083 8.93284e-05 0)
(1.00102 0.00022712 0)
(1.00115 0.00035376 0)
(1.00131 0.000483227 0)
(1.00141 0.000626278 0)
(1.00159 0.000774443 0)
(1.00171 0.000953299 0)
(1.00191 0.00113359 0)
(1.0021 0.00131545 0)
(1.00233 0.00150889 0)
(1.00254 0.00169269 0)
(1.00275 0.00188323 0)
(1.00291 0.00205786 0)
(1.003 0.00223092 0)
(1.00292 0.00238874 0)
(1.00003 -2.52515e-05 0)
(1.00005 -7.04425e-05 0)
(1.00028 -8.96122e-05 0)
(1.00048 -6.70551e-05 0)
(1.00074 1.01085e-05 0)
(1.00091 0.000119739 0)
(1.00109 0.000250205 0)
(1.00123 0.000381108 0)
(1.0014 0.000512108 0)
(1.00152 0.000659706 0)
(1.0017 0.000804355 0)
(1.00184 0.000971691 0)
(1.00204 0.00115178 0)
(1.00226 0.00131566 0)
(1.00249 0.00150061 0)
(1.00273 0.00167145 0)
(1.00295 0.00184698 0)
(1.00311 0.00200987 0)
(1.0032 0.00216449 0)
(1.00312 0.00230901 0)
(1.00002 -1.79353e-05 0)
(1.00007 -4.71058e-05 0)
(1.0003 -5.33385e-05 0)
(1.0005 -2.66086e-05 0)
(1.00079 4.39092e-05 0)
(1.00098 0.00014868 0)
(1.00118 0.000276596 0)
(1.00131 0.000407031 0)
(1.00148 0.000538656 0)
(1.00162 0.000678545 0)
(1.00182 0.000826228 0)
(1.00197 0.00098301 0)
(1.00219 0.00115655 0)
(1.00241 0.001314 0)
(1.00267 0.00147951 0)
(1.0029 0.00163888 0)
(1.00314 0.0017956 0)
(1.0033 0.00194608 0)
(1.0034 0.00208621 0)
(1.00332 0.00221847 0)
(1.00003 -9.96257e-06 0)
(1.00006 -2.42692e-05 0)
(1.00032 -1.6502e-05 0)
(1.00054 1.19393e-05 0)
(1.00083 7.81719e-05 0)
(1.00103 0.000175346 0)
(1.00126 0.000299259 0)
(1.0014 0.000425636 0)
(1.00159 0.000557927 0)
(1.00172 0.000692705 0)
(1.00193 0.000837453 0)
(1.00211 0.0009859 0)
(1.00233 0.0011468 0)
(1.00256 0.00129785 0)
(1.00283 0.00144914 0)
(1.00307 0.00159752 0)
(1.00331 0.00174048 0)
(1.00348 0.00187701 0)
(1.00358 0.00200373 0)
(1.0035 0.0021218 0)
(1.00003 -2.07498e-06 0)
(1.00007 -1.02431e-06 0)
(1.00034 1.3443e-05 0)
(1.00056 4.91374e-05 0)
(1.00088 0.000118337 0)
(1.00109 0.000200693 0)
(1.00133 0.000313921 0)
(1.00148 0.000436359 0)
(1.00168 0.000568023 0)
(1.00182 0.00070686 0)
(1.00205 0.000839748 0)
(1.00224 0.000976386 0)
(1.00247 0.00112995 0)
(1.00271 0.00126788 0)
(1.00299 0.0014112 0)
(1.00324 0.00154263 0)
(1.00348 0.0016749 0)
(1.00365 0.00179684 0)
(1.00376 0.00190999 0)
(1.00368 0.00201641 0)
(1.00003 5.03271e-06 0)
(1.00007 1.82472e-05 0)
(1.00036 4.57497e-05 0)
(1.00059 8.33545e-05 0)
(1.00092 0.000147159 0)
(1.00115 0.000224171 0)
(1.0014 0.000331078 0)
(1.00157 0.000448768 0)
(1.00176 0.000570875 0)
(1.00193 0.000699827 0)
(1.00215 0.000833584 0)
(1.00236 0.000956594 0)
(1.00261 0.00110005 0)
(1.00285 0.00122826 0)
(1.00313 0.00136006 0)
(1.00339 0.00148045 0)
(1.00364 0.00159704 0)
(1.00381 0.00170947 0)
(1.00392 0.00180954 0)
(1.00384 0.001906 0)
(1.00003 1.23945e-05 0)
(1.00008 3.58493e-05 0)
(1.00036 7.25327e-05 0)
(1.00061 0.000112256 0)
(1.00096 0.000174097 0)
(1.0012 0.000246633 0)
(1.00146 0.000340664 0)
(1.00164 0.000450474 0)
(1.00185 0.000568478 0)
(1.00203 0.000682996 0)
(1.00226 0.000817972 0)
(1.00247 0.000932202 0)
(1.00273 0.00105979 0)
(1.00298 0.0011817 0)
(1.00327 0.0012978 0)
(1.00353 0.00140785 0)
(1.00379 0.00150829 0)
(1.00397 0.00160895 0)
(1.00407 0.00169734 0)
(1.004 0.00178404 0)
(1.00003 1.8122e-05 0)
(1.00008 5.51289e-05 0)
(1.00037 9.38745e-05 0)
(1.00063 0.000134891 0)
(1.00098 0.000198854 0)
(1.00124 0.00026428 0)
(1.00151 0.000347012 0)
(1.00171 0.000440963 0)
(1.00193 0.000558232 0)
(1.00211 0.000667353 0)
(1.00236 0.000784601 0)
(1.00258 0.000894689 0)
(1.00286 0.00100761 0)
(1.00311 0.00111857 0)
(1.0034 0.00122451 0)
(1.00366 0.00132162 0)
(1.00392 0.00141521 0)
(1.0041 0.00150048 0)
(1.00421 0.0015798 0)
(1.00413 0.00165477 0)
(1.00002 2.40812e-05 0)
(1.00009 6.81318e-05 0)
(1.00038 0.000117182 0)
(1.00064 0.000157674 0)
(1.001 0.000209303 0)
(1.00128 0.000269388 0)
(1.00157 0.000353776 0)
(1.00177 0.000432305 0)
(1.00201 0.000532226 0)
(1.0022 0.000636588 0)
(1.00245 0.000741911 0)
(1.00269 0.000843196 0)
(1.00296 0.000951571 0)
(1.00322 0.00104349 0)
(1.00352 0.00114306 0)
(1.00378 0.00122972 0)
(1.00404 0.0013113 0)
(1.00422 0.00138705 0)
(1.00433 0.00145482 0)
(1.00425 0.00151953 0)
(1.00003 2.91054e-05 0)
(1.00009 7.95342e-05 0)
(1.00038 0.000132937 0)
(1.00066 0.000172651 0)
(1.00102 0.000220658 0)
(1.0013 0.000271454 0)
(1.0016 0.000343032 0)
(1.00183 0.000418643 0)
(1.00207 0.000506542 0)
(1.00228 0.000594051 0)
(1.00253 0.000693037 0)
(1.00278 0.000780892 0)
(1.00306 0.000879105 0)
(1.00332 0.000962296 0)
(1.00362 0.00104581 0)
(1.00388 0.00112274 0)
(1.00415 0.00119303 0)
(1.00433 0.00126084 0)
(1.00444 0.00132132 0)
(1.00436 0.00137755 0)
(1.00002 3.2221e-05 0)
(1.00009 9.042e-05 0)
(1.00038 0.000142447 0)
(1.00066 0.000178237 0)
(1.00102 0.000229396 0)
(1.00131 0.000268368 0)
(1.00163 0.000324982 0)
(1.00187 0.00038849 0)
(1.00213 0.000468896 0)
(1.00234 0.000542183 0)
(1.0026 0.000631321 0)
(1.00285 0.000708682 0)
(1.00315 0.000791643 0)
(1.00341 0.000869656 0)
(1.00371 0.000940333 0)
(1.00398 0.00100671 0)
(1.00424 0.00107047 0)
(1.00442 0.0011266 0)
(1.00453 0.00118226 0)
(1.00445 0.00122807 0)
(1.00002 3.41707e-05 0)
(1.00009 9.23495e-05 0)
(1.00038 0.000150204 0)
(1.00065 0.0001864 0)
(1.00102 0.000223552 0)
(1.00132 0.000253519 0)
(1.00164 0.000303072 0)
(1.0019 0.000353906 0)
(1.00217 0.00041774 0)
(1.0024 0.00048235 0)
(1.00266 0.000560825 0)
(1.00292 0.000623902 0)
(1.00322 0.000695362 0)
(1.00348 0.000762343 0)
(1.00379 0.000824716 0)
(1.00405 0.000881135 0)
(1.00432 0.000934369 0)
(1.0045 0.000981304 0)
(1.0046 0.0010286 0)
(1.00452 0.00106745 0)
(1.00002 3.40592e-05 0)
(1.00009 9.25224e-05 0)
(1.00036 0.000149038 0)
(1.00065 0.000180333 0)
(1.001 0.000215473 0)
(1.00131 0.000238012 0)
(1.00165 0.000272058 0)
(1.00191 0.00031158 0)
(1.00219 0.000370052 0)
(1.00245 0.000413175 0)
(1.00271 0.000481344 0)
(1.00297 0.000536642 0)
(1.00327 0.000592342 0)
(1.00355 0.000646965 0)
(1.00384 0.00069759 0)
(1.00411 0.000745614 0)
(1.00437 0.000787368 0)
(1.00456 0.000826955 0)
(1.00466 0.000865159 0)
(1.00458 0.000896845 0)
(1.00002 3.05752e-05 0)
(1.00009 8.41857e-05 0)
(1.00036 0.000135288 0)
(1.00063 0.000160688 0)
(1.00099 0.000189629 0)
(1.0013 0.000208428 0)
(1.00164 0.000238142 0)
(1.00192 0.000255279 0)
(1.0022 0.000303342 0)
(1.00246 0.000337002 0)
(1.00275 0.000379727 0)
(1.00301 0.000435133 0)
(1.00332 0.000470576 0)
(1.00359 0.000514066 0)
(1.00389 0.00055246 0)
(1.00416 0.000587314 0)
(1.00441 0.000623389 0)
(1.00461 0.0006479 0)
(1.0047 0.000679181 0)
(1.00463 0.000695373 0)
(1.00003 2.77369e-05 0)
(1.00008 7.21657e-05 0)
(1.00036 0.000120984 0)
(1.00061 0.000144782 0)
(1.00097 0.000171686 0)
(1.00128 0.000184864 0)
(1.00162 0.000217081 0)
(1.00192 0.000229957 0)
(1.00221 0.000265231 0)
(1.00246 0.000299461 0)
(1.00277 0.000329436 0)
(1.00303 0.000372347 0)
(1.00333 0.000405902 0)
(1.00362 0.000435748 0)
(1.00391 0.000471223 0)
(1.00418 0.000490654 0)
(1.00443 0.000524052 0)
(1.00463 0.000535873 0)
(1.00471 0.000561464 0)
(1.00464 0.000569058 0)
(1.00003 1.42373e-05 0)
(1.00008 3.35785e-05 0)
(1.00035 5.88875e-05 0)
(1.0006 6.97394e-05 0)
(1.00096 8.95382e-05 0)
(1.00127 9.14351e-05 0)
(1.00162 0.000105952 0)
(1.00191 0.000117595 0)
(1.00223 0.000136327 0)
(1.00247 0.000149371 0)
(1.00279 0.000168401 0)
(1.00306 0.000184608 0)
(1.00335 0.000206939 0)
(1.00364 0.00021706 0)
(1.00393 0.000236089 0)
(1.00421 0.000242225 0)
(1.00445 0.000257614 0)
(1.00464 0.000262387 0)
(1.00472 0.000273673 0)
(1.00464 0.000278003 0)
(0.984406 0.00209908 0)
(0.96026 0.00330008 0)
(0.93594 0.0036525 0)
(0.911151 0.00361818 0)
(0.885911 0.0035441 0)
(0.860264 0.00352225 0)
(0.834268 0.00352632 0)
(0.80788 0.00352278 0)
(0.781087 0.00350128 0)
(0.753858 0.00346539 0)
(0.726183 0.00342487 0)
(0.697996 0.00338265 0)
(0.669328 0.0033344 0)
(0.640202 0.00328508 0)
(0.610604 0.00323393 0)
(0.580533 0.00317487 0)
(0.550039 0.00311095 0)
(0.519132 0.003037 0)
(0.48793 0.00295388 0)
(0.456444 0.0028508 0)
(0.425004 0.00271462 0)
(0.393792 0.00254467 0)
(0.36328 0.00233313 0)
(0.334034 0.00205488 0)
(0.30682 0.00165818 0)
(0.28261 0.00115864 0)
(0.262367 0.000569526 0)
(0.246799 5.58093e-05 0)
(0.235743 -0.000288614 0)
(0.228111 -0.00045377 0)
(0.222733 -0.000507123 0)
(0.218823 -0.00048354 0)
(0.215823 -0.000447402 0)
(0.213311 -0.000399644 0)
(0.211085 -0.000344423 0)
(0.208922 -0.000288062 0)
(0.206705 -0.000234316 0)
(0.204354 -0.000187928 0)
(0.201875 -0.000149394 0)
(0.199256 -0.00011636 0)
(0.196551 -9.06234e-05 0)
(0.193763 -6.97954e-05 0)
(0.190956 -5.359e-05 0)
(0.188114 -3.99181e-05 0)
(0.185294 -2.83049e-05 0)
(0.182474 -1.97177e-05 0)
(0.179698 -1.10928e-05 0)
(0.176943 -4.14583e-06 0)
(0.174241 1.46386e-06 0)
(0.171578 5.49805e-06 0)
(0.168975 9.51125e-06 0)
(0.166423 1.28686e-05 0)
(0.163958 1.39489e-05 0)
(0.16155 1.62824e-05 0)
(0.159234 1.84515e-05 0)
(0.156949 1.99446e-05 0)
(0.154743 2.11209e-05 0)
(0.15257 2.18116e-05 0)
(0.150474 2.22246e-05 0)
(0.148417 2.159e-05 0)
(0.146453 2.15756e-05 0)
(0.144524 2.13587e-05 0)
(0.142679 2.08165e-05 0)
(0.140862 2.08207e-05 0)
(0.13912 1.99979e-05 0)
(0.137393 1.9321e-05 0)
(0.135747 1.86423e-05 0)
(0.134117 1.74754e-05 0)
(0.13257 1.71936e-05 0)
(0.131047 1.60192e-05 0)
(0.129603 1.53808e-05 0)
(0.128172 1.43654e-05 0)
(0.126828 1.32148e-05 0)
(0.125484 1.35009e-05 0)
(0.124228 1.25206e-05 0)
(0.122984 1.11866e-05 0)
(0.121835 1.10971e-05 0)
(0.120683 9.78276e-06 0)
(0.119636 9.28835e-06 0)
(0.118577 9.29571e-06 0)
(0.117628 8.0282e-06 0)
(0.116678 7.23149e-06 0)
(0.115839 7.15876e-06 0)
(0.114982 5.85194e-06 0)
(0.114256 5.6438e-06 0)
(0.113478 6.02509e-06 0)
(0.112838 4.62401e-06 0)
(0.112168 3.45895e-06 0)
(0.111653 4.10492e-06 0)
(0.11103 3.98179e-06 0)
(0.110597 2.89419e-06 0)
(0.110063 2.33974e-06 0)
(0.109737 2.73539e-06 0)
(0.109235 2.21892e-06 0)
(0.108998 1.93375e-06 0)
(0.10853 1.90451e-06 0)
(0.10839 1.68626e-06 0)
(0.107915 1.67605e-06 0)
(0.107881 2.1453e-06 0)
(0.107283 3.57136e-06 0)
(0.996898 0.00406949 0)
(0.99594 0.00589762 0)
(0.994697 0.00653265 0)
(0.993054 0.00648661 0)
(0.99095 0.0063354 0)
(0.988275 0.00628988 0)
(0.98507 0.00633115 0)
(0.981247 0.00639786 0)
(0.976812 0.00645669 0)
(0.971679 0.00650478 0)
(0.965845 0.00655144 0)
(0.959198 0.00660045 0)
(0.951756 0.00664696 0)
(0.943446 0.0066905 0)
(0.934281 0.00673568 0)
(0.924155 0.00677621 0)
(0.913104 0.006811 0)
(0.901021 0.00683611 0)
(0.88796 0.00685145 0)
(0.873816 0.00684322 0)
(0.858702 0.00679016 0)
(0.842614 0.0066851 0)
(0.825734 0.00650846 0)
(0.808254 0.00622792 0)
(0.790537 0.00578763 0)
(0.773 0.00517426 0)
(0.756249 0.0043904 0)
(0.740721 0.00354683 0)
(0.72673 0.00276143 0)
(0.713987 0.00213733 0)
(0.702267 0.00169646 0)
(0.691194 0.00139986 0)
(0.680685 0.00119885 0)
(0.67049 0.00104754 0)
(0.660608 0.000941441 0)
(0.650921 0.000875225 0)
(0.641358 0.000834331 0)
(0.631881 0.000807854 0)
(0.622495 0.000785229 0)
(0.613128 0.00076469 0)
(0.603889 0.000741451 0)
(0.594679 0.000716349 0)
(0.585637 0.000690969 0)
(0.576624 0.000664772 0)
(0.567796 0.000637896 0)
(0.559058 0.000609358 0)
(0.550484 0.000583144 0)
(0.542037 0.000556057 0)
(0.533782 0.000530396 0)
(0.525675 0.000505051 0)
(0.517736 0.000480479 0)
(0.509954 0.000455449 0)
(0.502433 0.000428944 0)
(0.495032 0.000405981 0)
(0.4879 0.00038437 0)
(0.480895 0.000366391 0)
(0.474133 0.000347897 0)
(0.467474 0.00033025 0)
(0.461077 0.000315886 0)
(0.454774 0.00029709 0)
(0.448717 0.00028175 0)
(0.442786 0.00026811 0)
(0.437083 0.000253252 0)
(0.431461 0.000242361 0)
(0.426093 0.000231284 0)
(0.420759 0.000220306 0)
(0.415671 0.000210712 0)
(0.410625 0.000199954 0)
(0.405805 0.000190166 0)
(0.401046 0.000179269 0)
(0.396528 0.000171798 0)
(0.392043 0.000163013 0)
(0.387794 0.000154107 0)
(0.383547 0.000147824 0)
(0.379584 0.000138413 0)
(0.375617 0.000129619 0)
(0.371959 0.000124551 0)
(0.368274 0.000115293 0)
(0.36488 0.000108581 0)
(0.361476 0.000102982 0)
(0.358413 9.40756e-05 0)
(0.35529 8.73559e-05 0)
(0.352563 8.32302e-05 0)
(0.349746 7.42361e-05 0)
(0.347299 6.93509e-05 0)
(0.344731 6.64115e-05 0)
(0.342663 5.88914e-05 0)
(0.340362 5.12984e-05 0)
(0.338589 5.00511e-05 0)
(0.336505 4.60572e-05 0)
(0.335067 4.02084e-05 0)
(0.333188 3.51799e-05 0)
(0.332064 3.4262e-05 0)
(0.330337 2.95686e-05 0)
(0.329519 2.73167e-05 0)
(0.327881 2.39115e-05 0)
(0.327408 2.27117e-05 0)
(0.325769 1.93408e-05 0)
(0.325645 2.06022e-05 0)
(0.323876 2.41584e-05 0)
(0.997277 0.00358783 0)
(0.996712 0.00475854 0)
(0.996401 0.00543076 0)
(0.996276 0.00557128 0)
(0.996299 0.00551578 0)
(0.996306 0.00550041 0)
(0.996341 0.00557999 0)
(0.996296 0.00572046 0)
(0.996215 0.00588019 0)
(0.995992 0.00603856 0)
(0.995664 0.0061998 0)
(0.995101 0.00636412 0)
(0.99436 0.00652961 0)
(0.993339 0.00669438 0)
(0.992093 0.00686655 0)
(0.990506 0.00703643 0)
(0.988627 0.0072027 0)
(0.986353 0.00736034 0)
(0.983718 0.0075075 0)
(0.980623 0.00763165 0)
(0.9771 0.00770466 0)
(0.973065 0.00771423 0)
(0.968585 0.00763829 0)
(0.96359 0.00743499 0)
(0.95825 0.00706051 0)
(0.952527 0.00647583 0)
(0.946735 0.00569599 0)
(0.940841 0.00480144 0)
(0.935157 0.00392918 0)
(0.929502 0.00321622 0)
(0.924022 0.0027245 0)
(0.918499 0.00241015 0)
(0.913051 0.00222017 0)
(0.907543 0.00209481 0)
(0.902028 0.00201364 0)
(0.896439 0.00197267 0)
(0.890777 0.00195619 0)
(0.884966 0.0019465 0)
(0.879079 0.00193815 0)
(0.872969 0.00192554 0)
(0.86681 0.00190289 0)
(0.86041 0.00187278 0)
(0.853988 0.00183854 0)
(0.847327 0.00180196 0)
(0.840649 0.00175948 0)
(0.833787 0.00171261 0)
(0.826879 0.00166757 0)
(0.819839 0.00161812 0)
(0.812759 0.00156691 0)
(0.805586 0.00151599 0)
(0.798371 0.00146752 0)
(0.791054 0.00141319 0)
(0.783789 0.00135426 0)
(0.776394 0.00130191 0)
(0.769105 0.00124919 0)
(0.76167 0.00119934 0)
(0.75439 0.00115214 0)
(0.746955 0.00110413 0)
(0.739661 0.00105997 0)
(0.732303 0.00101221 0)
(0.725049 0.000966981 0)
(0.71776 0.000924164 0)
(0.710645 0.000882333 0)
(0.703412 0.000843851 0)
(0.69643 0.000806638 0)
(0.689337 0.00077199 0)
(0.682467 0.000737979 0)
(0.675519 0.00070388 0)
(0.668826 0.000673117 0)
(0.662036 0.000637621 0)
(0.655551 0.000608717 0)
(0.649 0.00057982 0)
(0.642724 0.000550992 0)
(0.63635 0.000526314 0)
(0.630391 0.00049765 0)
(0.624241 0.000467293 0)
(0.618586 0.000444918 0)
(0.612786 0.000418529 0)
(0.607394 0.000394145 0)
(0.601891 0.000370847 0)
(0.596969 0.000345585 0)
(0.591734 0.000320077 0)
(0.587216 0.00030037 0)
(0.582449 0.000276839 0)
(0.578304 0.000258972 0)
(0.57378 0.000238776 0)
(0.570242 0.000217772 0)
(0.566097 0.000197135 0)
(0.562953 0.000186082 0)
(0.559114 0.000168079 0)
(0.556543 0.000152396 0)
(0.552968 0.000135431 0)
(0.550887 0.000127893 0)
(0.547558 0.000111704 0)
(0.546007 0.000104568 0)
(0.542793 9.01982e-05 0)
(0.541838 8.62171e-05 0)
(0.538653 7.33336e-05 0)
(0.53827 7.28758e-05 0)
(0.535002 7.39605e-05 0)
(0.997748 0.00343606 0)
(0.997141 0.00441692 0)
(0.996749 0.00517897 0)
(0.996578 0.0055752 0)
(0.996656 0.00568771 0)
(0.996803 0.00572054 0)
(0.99707 0.00578219 0)
(0.997325 0.00589926 0)
(0.997654 0.00604863 0)
(0.997945 0.00621132 0)
(0.998283 0.00638061 0)
(0.998536 0.00655531 0)
(0.998803 0.00672819 0)
(0.998989 0.00690311 0)
(0.999186 0.00708196 0)
(0.999294 0.00726308 0)
(0.999405 0.00744096 0)
(0.999428 0.00761582 0)
(0.999446 0.00777658 0)
(0.999363 0.00792098 0)
(0.999262 0.00801006 0)
(0.99902 0.00803375 0)
(0.998745 0.00796403 0)
(0.998255 0.00776375 0)
(0.997707 0.00739544 0)
(0.996879 0.00683292 0)
(0.995971 0.00608558 0)
(0.994739 0.005231 0)
(0.993418 0.00438818 0)
(0.991805 0.00368628 0)
(0.990143 0.00318439 0)
(0.988288 0.00286781 0)
(0.986444 0.00267904 0)
(0.984513 0.00256546 0)
(0.982608 0.00249469 0)
(0.980628 0.00245505 0)
(0.978671 0.00243583 0)
(0.976582 0.00242133 0)
(0.974519 0.00241206 0)
(0.972245 0.00240061 0)
(0.970002 0.00238116 0)
(0.967505 0.00235548 0)
(0.965031 0.00232684 0)
(0.962301 0.00229813 0)
(0.959575 0.00226174 0)
(0.956626 0.002223 0)
(0.953631 0.00218513 0)
(0.95045 0.00214311 0)
(0.947205 0.00209956 0)
(0.943779 0.00205444 0)
(0.940301 0.0020141 0)
(0.936607 0.00196551 0)
(0.932937 0.00191241 0)
(0.928983 0.00186372 0)
(0.925108 0.00181577 0)
(0.920913 0.00176957 0)
(0.916818 0.00172278 0)
(0.912412 0.00167766 0)
(0.908078 0.0016336 0)
(0.903501 0.00158353 0)
(0.898966 0.00153771 0)
(0.894187 0.00149034 0)
(0.889524 0.00144538 0)
(0.884523 0.001403 0)
(0.879726 0.00135862 0)
(0.874566 0.00131781 0)
(0.869627 0.00127823 0)
(0.864334 0.00123441 0)
(0.859276 0.00119581 0)
(0.853876 0.00115061 0)
(0.848733 0.0011102 0)
(0.843259 0.00106951 0)
(0.838105 0.00103138 0)
(0.8325 0.000992703 0)
(0.827389 0.000951551 0)
(0.821759 0.000907452 0)
(0.816656 0.000869334 0)
(0.811094 0.000827867 0)
(0.806075 0.000791279 0)
(0.800507 0.000748013 0)
(0.795738 0.000708007 0)
(0.790237 0.000667102 0)
(0.785639 0.000628547 0)
(0.780352 0.000585108 0)
(0.776042 0.000557479 0)
(0.770781 0.000516597 0)
(0.766921 0.000476817 0)
(0.761892 0.000439239 0)
(0.758364 0.000417371 0)
(0.753478 0.000378785 0)
(0.750497 0.000350067 0)
(0.745765 0.000315986 0)
(0.743264 0.000298607 0)
(0.738686 0.000264001 0)
(0.736773 0.000249908 0)
(0.732225 0.000217874 0)
(0.730978 0.000208135 0)
(0.726418 0.000180079 0)
(0.725838 0.000175174 0)
(0.721164 0.000164258 0)
(0.998099 0.00346676 0)
(0.997476 0.00432842 0)
(0.997023 0.00506717 0)
(0.996766 0.00556189 0)
(0.996793 0.00576914 0)
(0.996925 0.00583146 0)
(0.997213 0.00586211 0)
(0.997491 0.0059262 0)
(0.997859 0.00603495 0)
(0.998186 0.00617426 0)