/*--------------------------------*- C++ -*----------------------------------*\
| =========                 |                                                 |
| \\      /  F ield         | OpenFOAM: The Open Source CFD Toolbox           |
|  \\    /   O peration     | Version:  v2106                                 |
|   \\  /    A nd           | Website:  www.openfoam.com                      |
|    \\/     M anipulation  |                                                 |
\*---------------------------------------------------------------------------*/
FoamFile
{
    version     2.0;
    format      ascii;
    arch        "LSB;label=32;scalar=64";
    class       volScalarField;
    location    "1.8";
    object      p;
}
// * * * * * * * * * * * * * * * * * * * * * * * * * * * * * * * * * * * * * //

dimensions      [0 2 -2 0 0 0 0];

internalField   nonuniform List<scalar> 
4800
(
9.10597e-11
-0.000112717
-0.000205147
-0.000286988
-0.000388483
-0.00051598
-0.000640721
-0.000683589
-0.000724574
-0.000699967
-0.000660349
-0.000625661
-0.000536341
-0.000392517
-0.000218021
6.48569e-05
0.000400026
0.0008353
0.00141157
0.00202871
4.26083e-06
-0.000115989
-0.00020328
-0.000289448
-0.000385544
-0.000517065
-0.00062614
-0.000685228
-0.000711411
-0.000702027
-0.000653968
-0.000627823
-0.000532453
-0.000396169
-0.00020604
5.84909e-05
0.000396784
0.000792781
0.00125251
0.00171387
6.27566e-06
-0.000118037
-0.000202458
-0.000290561
-0.000384092
-0.000516785
-0.000622644
-0.000683739
-0.00070857
-0.000700813
-0.000653768
-0.00062577
-0.000533796
-0.000395946
-0.000208662
4.30253e-05
0.00035283
0.000688534
0.00108673
0.00147952
9.98067e-06
-0.000120398
-0.000201229
-0.000291762
-0.000382806
-0.000515554
-0.000615494
-0.000679185
-0.000705871
-0.00069614
-0.000653804
-0.000620777
-0.000532379
-0.000392499
-0.000218563
2.42014e-05
0.000290885
0.000576098
0.000913554
0.0012363
1.36291e-05
-0.00012225
-0.000201143
-0.000292169
-0.000382544
-0.00051216
-0.000613177
-0.000673933
-0.000702715
-0.000692003
-0.000650779
-0.000615317
-0.000532979
-0.000394812
-0.000233711
-1.19332e-05
0.000216058
0.000436986
0.000687923
0.000995993
1.71823e-05
-0.000122858
-0.000202065
-0.000290879
-0.00038394
-0.000506457
-0.00061007
-0.00066802
-0.0006976
-0.000686454
-0.000648404
-0.000609976
-0.000535584
-0.000399299
-0.000254357
-7.02049e-05
9.83328e-05
0.000243037
0.000478092
0.000787792
2.07577e-05
-0.000121504
-0.000204474
-0.00028935
-0.00038507
-0.000502711
-0.000603515
-0.000662134
-0.000691822
-0.000681706
-0.000646296
-0.000606725
-0.000538978
-0.000409794
-0.00028998
-0.000182508
-7.14141e-05
7.63204e-05
0.000303775
0.000607751
2.35842e-05
-0.000117428
-0.000207639
-0.000288172
-0.000383677
-0.000498613
-0.000595904
-0.000655485
-0.000686204
-0.000677845
-0.000644357
-0.000605973
-0.000545483
-0.000443715
-0.000388808
-0.00032505
-0.000204514
-5.49655e-05
0.000150664
0.000430946
2.5715e-05
-0.000110855
-0.000208742
-0.000289512
-0.000382668
-0.000492501
-0.000586855
-0.000649067
-0.000681198
-0.000674738
-0.000643666
-0.000612182
-0.000575749
-0.000530249
-0.000498394
-0.000424629
-0.000304663
-0.000175749
-5.88986e-06
0.000246651
2.82557e-05
-0.000104108
-0.000207108
-0.000289769
-0.00038323
-0.000484983
-0.000576522
-0.000642996
-0.00067781
-0.000672692
-0.000646753
-0.000637658
-0.000655558
-0.000627933
-0.000569837
-0.000497363
-0.000403818
-0.000305397
-0.000169835
5.40135e-05
2.95368e-05
-9.61864e-05
-0.000202573
-0.00028672
-0.000383045
-0.000479028
-0.000567617
-0.000637384
-0.000676892
-0.000674518
-0.000673225
-0.000714196
-0.000728646
-0.00067902
-0.000622229
-0.000575762
-0.000515057
-0.000446435
-0.000342207
-0.000144283
3.08946e-05
-8.78994e-05
-0.0001951
-0.000280501
-0.000377785
-0.000475881
-0.000563308
-0.000636028
-0.000680197
-0.000701497
-0.000743302
-0.000769203
-0.000763066
-0.000722742
-0.000686077
-0.000667573
-0.00064034
-0.000599024
-0.000520101
-0.000344047
3.05043e-05
-7.59133e-05
-0.000184115
-0.000269213
-0.000367667
-0.000473515
-0.000568412
-0.000646228
-0.000703314
-0.000762392
-0.000786653
-0.00079385
-0.000796958
-0.000777793
-0.000763495
-0.000772211
-0.000775424
-0.000758663
-0.000700603
-0.000541416
2.97463e-05
-6.60316e-05
-0.000168649
-0.000252368
-0.000351359
-0.000471978
-0.00058387
-0.000692342
-0.000765926
-0.000789791
-0.000801476
-0.000819849
-0.000840807
-0.00084511
-0.000852805
-0.000884735
-0.000915409
-0.000922353
-0.000881142
-0.000734961
3.53749e-05
-5.93843e-05
-0.000151395
-0.000234034
-0.00033705
-0.000477122
-0.000628664
-0.000737326
-0.000790633
-0.000813283
-0.000829905
-0.000858222
-0.000894361
-0.000920691
-0.000950057
-0.00100315
-0.0010588
-0.00108774
-0.00106185
-0.000926796
4.18831e-05
-4.65975e-05
-0.000135178
-0.000219725
-0.000335511
-0.000497372
-0.000660543
-0.000766336
-0.000822902
-0.000848014
-0.000869661
-0.000905685
-0.000954192
-0.00100094
-0.00105244
-0.00112624
-0.00120472
-0.00125455
-0.00124354
-0.00111827
5.39815e-05
-2.74257e-05
-0.000122539
-0.000212163
-0.000343717
-0.000529332
-0.000689932
-0.000794177
-0.000853593
-0.000884253
-0.000913209
-0.000959501
-0.00102122
-0.00108665
-0.00115957
-0.00125343
-0.00135294
-0.0014228
-0.00142598
-0.00130897
7.06479e-05
-5.25704e-06
-0.000111718
-0.000218963
-0.000364364
-0.00055547
-0.000715541
-0.000819911
-0.000884658
-0.000923546
-0.000962264
-0.00102036
-0.00109553
-0.00117836
-0.00127151
-0.00138512
-0.00150459
-0.00159327
-0.00160973
-0.0014996
9.19436e-05
2.0617e-05
-0.000102697
-0.000239371
-0.000396626
-0.000578545
-0.000735641
-0.000845552
-0.000918283
-0.000967052
-0.0010168
-0.00108734
-0.00117658
-0.00127644
-0.00138913
-0.00152185
-0.00165973
-0.0017655
-0.00179442
-0.00169037
0.000114964
4.47933e-05
-9.65888e-05
-0.000259995
-0.000428885
-0.000606455
-0.000760663
-0.000873583
-0.000954734
-0.00101473
-0.00107638
-0.00115993
-0.00126443
-0.00138178
-0.00151296
-0.00166302
-0.00181706
-0.00193793
-0.00197843
-0.00188014
0.000138841
6.72033e-05
-9.39306e-05
-0.00027919
-0.0004601
-0.000639316
-0.000792188
-0.000906496
-0.000994501
-0.00106636
-0.00114101
-0.00123828
-0.00135856
-0.00149356
-0.00164216
-0.00180747
-0.00197546
-0.00210979
-0.00216102
-0.00206833
0.00016129
8.66089e-05
-9.06263e-05
-0.000296341
-0.00049084
-0.000675194
-0.000829677
-0.000945682
-0.00103947
-0.00112267
-0.00121103
-0.00132228
-0.00145808
-0.00161034
-0.00177572
-0.00195513
-0.00213515
-0.00228108
-0.00234202
-0.00225459
0.000181226
0.000103266
-8.64364e-05
-0.000312098
-0.000521867
-0.000713487
-0.000872354
-0.000992007
-0.00109096
-0.00118449
-0.00128627
-0.00141138
-0.00156234
-0.00173141
-0.00191317
-0.00210589
-0.00229617
-0.00245133
-0.00252051
-0.00243796
0.000199089
0.000117435
-8.29961e-05
-0.000326944
-0.000553217
-0.000754018
-0.000919385
-0.00104491
-0.00114961
-0.00125235
-0.0013668
-0.00150539
-0.00167087
-0.00185608
-0.00205355
-0.00225863
-0.00245783
-0.00262013
-0.00269585
-0.00261772
0.000214561
0.000128372
-8.10004e-05
-0.000341332
-0.000584999
-0.000796882
-0.00097014
-0.00110349
-0.0012154
-0.00132689
-0.00145291
-0.00160416
-0.00178314
-0.00198342
-0.0021957
-0.00241226
-0.00261943
-0.00278749
-0.00286804
-0.00279348
0.000227612
0.000136667
-8.14622e-05
-0.000356456
-0.000617376
-0.000841901
-0.00102416
-0.00116679
-0.00128771
-0.00140828
-0.00154475
-0.00170751
-0.00189877
-0.00211259
-0.00233839
-0.00256574
-0.00278004
-0.00295287
-0.00303699
-0.00296489
0.000237985
0.000141695
-8.48502e-05
-0.000372957
-0.000650803
-0.000889261
-0.00108129
-0.00123386
-0.00136518
-0.00149582
-0.0016422
-0.00181523
-0.00201751
-0.0022429
-0.00248054
-0.00271795
-0.00293882
-0.00311558
-0.00320234
-0.00313173
0.000245342
0.000143727
-9.13484e-05
-0.000391645
-0.000685697
-0.000938948
-0.0011416
-0.00130426
-0.00144654
-0.0015881
-0.00174446
-0.00192669
-0.00213851
-0.0023739
-0.00262165
-0.00286801
-0.00309505
-0.00327508
-0.00336363
-0.00329375
0.000249313
0.000142302
-0.000101255
-0.00041292
-0.000722231
-0.00099055
-0.00120468
-0.00137785
-0.00153123
-0.00168394
-0.00185037
-0.00204116
-0.00226109
-0.00250488
-0.00276111
-0.00301496
-0.00324755
-0.00343052
-0.00352022
-0.00345051
0.000249865
0.000137538
-0.000114628
-0.00043703
-0.000760567
-0.00104403
-0.00127028
-0.0014541
-0.00161837
-0.0017821
-0.00195861
-0.00215773
-0.00238466
-0.00263517
-0.00289824
-0.00315816
-0.00339541
-0.00358108
-0.00367158
-0.00360158
0.000246572
0.000129285
-0.000131358
-0.000464199
-0.00080085
-0.00109909
-0.00133813
-0.0015325
-0.00170704
-0.00188121
-0.00206754
-0.00227484
-0.00250812
-0.00276406
-0.00303238
-0.00329707
-0.00353796
-0.00372587
-0.00381698
-0.00374633
0.000239612
0.000117483
-0.000151328
-0.000494535
-0.000843215
-0.00115512
-0.00140735
-0.00161258
-0.00179678
-0.00198044
-0.00217582
-0.00239074
-0.00262989
-0.00289043
-0.00316268
-0.0034309
-0.00367448
-0.00386402
-0.00395554
-0.00388409
0.000228883
0.000102337
-0.000174222
-0.000527807
-0.000887718
-0.0012118
-0.0014768
-0.00169311
-0.00188675
-0.002079
-0.00228224
-0.00250394
-0.00274841
-0.0030129
-0.00328815
-0.00355882
-0.00380426
-0.00399487
-0.00408653
-0.0040142
0.000214506
8.38553e-05
-0.000199489
-0.000562927
-0.000933769
-0.00126878
-0.00154574
-0.00177291
-0.00197541
-0.00217527
-0.00238533
-0.0026131
-0.0028623
-0.00313021
-0.00340778
-0.00368015
-0.00392674
-0.0041179
-0.00420937
-0.00413605
0.000197148
6.25689e-05
-0.000226816
-0.000599274
-0.000980482
-0.00132514
-0.00161293
-0.00185066
-0.0020614
-0.00226788
-0.00248383
-0.00271696
-0.00297033
-0.00324109
-0.0035204
-0.0037939
-0.00404116
-0.00423247
-0.00432346
-0.004249
0.000177399
3.94874e-05
-0.000255153
-0.000635911
-0.00102692
-0.00137994
-0.00167709
-0.00192462
-0.0021433
-0.00235554
-0.00257643
-0.00281424
-0.00307129
-0.00334443
-0.00362494
-0.00389911
-0.00414668
-0.0043379
-0.00442824
-0.00435254
0.000156378
1.4978e-05
-0.000283571
-0.000670861
-0.00107101
-0.00143151
-0.00173682
-0.00199313
-0.00221914
-0.00243668
-0.00266162
-0.00290345
-0.0031636
-0.00343873
-0.00372007
-0.00399461
-0.00424233
-0.00443346
-0.00452325
-0.00444644
0.000135201
-9.0971e-06
-0.000310816
-0.000702922
-0.00111099
-0.00147791
-0.00178998
-0.00205411
-0.00228618
-0.00250825
-0.00273657
-0.00298173
-0.00324445
-0.00352105
-0.00380293
-0.00407755
-0.00432526
-0.00451622
-0.0046056
-0.00452807
0.000116027
-3.02873e-05
-0.000334735
-0.000730458
-0.00114507
-0.00151708
-0.00183334
-0.00210374
-0.00234063
-0.00256594
-0.0027968
-0.0030444
-0.00330915
-0.00358671
-0.00386885
-0.00414338
-0.00439104
-0.00458175
-0.00467053
-0.00459185
9.94101e-05
-4.98766e-05
-0.000358116
-0.000757339
-0.00117787
-0.00155598
-0.00187631
-0.00215242
-0.00239505
-0.00262409
-0.00285792
-0.00310838
-0.00337578
-0.00365506
-0.00393821
-0.00421345
-0.00446187
-0.00465333
-0.00474266
-0.00466426
0.00278209
0.00301338
0.00296464
0.00291774
0.00287846
0.00279076
0.00262466
0.00238639
0.00209843
0.00178004
0.00144531
0.00110952
0.000780752
0.000455227
0.000121826
-0.000226371
-0.000591977
-0.000985497
-0.00142056
-0.00190737
-0.00245913
-0.00308344
-0.00377263
-0.00450761
-0.00525599
-0.00596248
-0.00654153
-0.00690887
-0.00702263
-0.00689918
-0.00661338
-0.00625546
-0.00589256
-0.00556695
-0.00529987
-0.00509727
-0.00495428
-0.00486232
-0.00481426
-0.00480027
-0.00481002
-0.00483497
-0.0048723
-0.00491727
-0.00496634
-0.00501778
-0.00507158
-0.00512298
-0.00517222
-0.00522315
-0.00527468
-0.00532609
-0.00537557
-0.00542608
-0.00547629
-0.0055262
-0.00557467
-0.00562333
-0.00567267
-0.00571971
-0.00576709
-0.00581205
-0.0058589
-0.00590392
-0.00594988
-0.00599462
-0.00603985
-0.00608709
-0.00613186
-0.00617873
-0.006224
-0.00627131
-0.00631628
-0.00636047
-0.00640569
-0.00644993
-0.00649801
-0.00654455
-0.00659252
-0.00663886
-0.00668401
-0.00672887
-0.00677314
-0.00681909
-0.00686604
-0.00691203
-0.00695634
-0.00700039
-0.00704285
-0.00708659
-0.00712867
-0.00717001
-0.00720996
-0.00724828
-0.00728416
-0.00731757
-0.0073461
-0.00737355
-0.00738852
-0.00740428
0.00221593
0.00263817
0.00285605
0.00290617
0.00286619
0.00276048
0.00258803
0.00235291
0.00206986
0.00175452
0.00142081
0.0010852
0.000756878
0.000432321
0.000100083
-0.000247136
-0.000611599
-0.00100339
-0.00143631
-0.00192007
-0.00246725
-0.00308552
-0.00376724
-0.00449169
-0.00522734
-0.00592224
-0.00649604
-0.00686814
-0.0069911
-0.00687636
-0.00659689
-0.00624297
-0.00588206
-0.00555833
-0.00529277
-0.00509125
-0.00494895
-0.00485741
-0.00480971
-0.00479602
-0.00480602
-0.00483117
-0.00486873
-0.00491391
-0.00496316
-0.00501478
-0.0050688
-0.00512039
-0.00516978
-0.00522089
-0.00527257
-0.00532414
-0.00537374
-0.00542437
-0.0054747
-0.00552472
-0.00557328
-0.00562203
-0.00567145
-0.00571856
-0.005766
-0.00581102
-0.00585793
-0.00590299
-0.005949
-0.00599378
-0.00603904
-0.00608634
-0.00613111
-0.00617802
-0.0062233
-0.00627064
-0.00631564
-0.00635984
-0.0064051
-0.00644934
-0.00649745
-0.006544
-0.00659199
-0.00663835
-0.00668352
-0.0067284
-0.00677267
-0.00681865
-0.00686561
-0.00691162
-0.00695594
-0.00700001
-0.00704248
-0.00708624
-0.00712832
-0.00716969
-0.00720964
-0.00724798
-0.00728388
-0.0073173
-0.00734583
-0.00737331
-0.00738827
-0.007404
0.00190063
0.00239959
0.00278292
0.00293668
0.0029048
0.00276951
0.00257274
0.00232856
0.00204506
0.00173057
0.00139608
0.00105856
0.000728864
0.00040376
7.15306e-05
-0.00027545
-0.000639445
-0.00102983
-0.00146029
-0.00194007
-0.00248011
-0.00308764
-0.00375493
-0.0044584
-0.00516683
-0.00583326
-0.00638727
-0.00675544
-0.00689278
-0.00680468
-0.00655129
-0.00621582
-0.00586613
-0.00554898
-0.00528886
-0.00509136
-0.00495118
-0.00486035
-0.00481252
-0.00479831
-0.00480772
-0.00483229
-0.0048693
-0.00491399
-0.00496283
-0.00501409
-0.00506781
-0.00511921
-0.00516848
-0.0052195
-0.00527109
-0.00532261
-0.00537218
-0.00542281
-0.00547313
-0.00552318
-0.00557178
-0.00562057
-0.00567005
-0.00571718
-0.0057647
-0.00580975
-0.00585672
-0.00590183
-0.00594791
-0.00599277
-0.00603809
-0.00608547
-0.00613029
-0.00617726
-0.00622256
-0.00626993
-0.00631495
-0.0063592
-0.00640451
-0.0064488
-0.00649695
-0.00654352
-0.00659151
-0.00663788
-0.00668306
-0.00672799
-0.00677228
-0.00681829
-0.00686525
-0.00691127
-0.0069556
-0.00699969
-0.00704216
-0.00708595
-0.00712804
-0.00716942
-0.00720939
-0.00724774
-0.00728365
-0.0073171
-0.00734564
-0.00737315
-0.00738825
-0.00740391
0.00164035
0.00217518
0.00265452
0.00289928
0.00290497
0.00276281
0.00254565
0.00228863
0.00200256
0.00169005
0.00135696
0.00101932
0.0006894
0.000364358
3.24757e-05
-0.000314029
-0.000677267
-0.00106518
-0.00149167
-0.00196564
-0.00249574
-0.0030883
-0.00373569
-0.00441433
-0.00509204
-0.00572657
-0.00625733
-0.00662048
-0.00677378
-0.00671593
-0.00649366
-0.00618143
-0.00584629
-0.0055379
-0.00528339
-0.00508939
-0.00495107
-0.00486092
-0.0048129
-0.00479809
-0.00480689
-0.00483088
-0.00486737
-0.00491167
-0.0049602
-0.00501114
-0.00506462
-0.00511595
-0.00516529
-0.00521635
-0.00526796
-0.00531954
-0.0053692
-0.00541992
-0.00547034
-0.00552052
-0.00556926
-0.00561817
-0.00566776
-0.00571502
-0.00576266
-0.00580781
-0.00585489
-0.00590009
-0.00594628
-0.00599125
-0.00603669
-0.00608419
-0.00612911
-0.00617617
-0.00622148
-0.00626886
-0.00631391
-0.00635821
-0.00640362
-0.006448
-0.00649622
-0.0065428
-0.00659078
-0.00663714
-0.00668233
-0.00672731
-0.00677167
-0.00681772
-0.00686468
-0.0069107
-0.00695502
-0.00699914
-0.00704164
-0.00708546
-0.00712756
-0.00716896
-0.00720893
-0.00724732
-0.00728325
-0.00731672
-0.00734532
-0.00737284
-0.00738831
-0.00740386
0.00141368
0.00196883
0.00250433
0.00282359
0.00288526
0.00275688
0.00252933
0.00225871
0.00196526
0.00165096
0.00131782
0.000979809
0.000649783
0.000325115
-6.25228e-06
-0.000352257
-0.000714569
-0.00109941
-0.0015211
-0.0019884
-0.00250729
-0.00308276
-0.00370769
-0.00435918
-0.00500594
-0.00560941
-0.00611757
-0.00647558
-0.00664375
-0.00661548
-0.00642623
-0.00614059
-0.00582301
-0.00552505
-0.00527624
-0.00508543
-0.00494904
-0.00485997
-0.00481221
-0.00479715
-0.00480558
-0.00482916
-0.00486521
-0.00490915
-0.00495738
-0.00500794
-0.0050611
-0.00511235
-0.00516172
-0.00521278
-0.00526436
-0.00531595
-0.00536567
-0.00541644
-0.00546689
-0.00551718
-0.00556606
-0.00561509
-0.00566479
-0.00571217
-0.00575993
-0.00580521
-0.00585239
-0.00589769
-0.00594401
-0.00598914
-0.00603473
-0.00608239
-0.00612748
-0.00617464
-0.00621998
-0.00626735
-0.0063124
-0.00635679
-0.00640234
-0.00644687
-0.00649519
-0.00654181
-0.00658975
-0.00663607
-0.00668126
-0.00672634
-0.0067708
-0.00681694
-0.00686389
-0.00690988
-0.00695418
-0.00699835
-0.00704088
-0.00708475
-0.00712685
-0.00716827
-0.00720825
-0.00724668
-0.00728265
-0.00731614
-0.00734485
-0.00737234
-0.00738845
-0.00740387
0.00121609
0.00178047
0.00234645
0.0027248
0.00284736
0.00275023
0.00252399
0.00224053
0.00193477
0.00161364
0.0012776
0.000938024
0.000607465
0.000283369
-4.70427e-05
-0.000392223
-0.000753322
-0.00113456
-0.00155023
-0.00200961
-0.00251621
-0.00307331
-0.00367468
-0.00429874
-0.00491544
-0.00548939
-0.00597591
-0.00632818
-0.00650941
-0.00650901
-0.00635278
-0.00609543
-0.00579767
-0.00551159
-0.00526892
-0.00508121
-0.00494661
-0.00485863
-0.00481125
-0.00479607
-0.00480423
-0.00482745
-0.00486305
-0.0049066
-0.00495444
-0.00500456
-0.00505732
-0.00510845
-0.00515783
-0.00520884
-0.00526035
-0.00531194
-0.0053617
-0.00541248
-0.00546296
-0.00551335
-0.00556238
-0.00561152
-0.00566132
-0.00570884
-0.00575673
-0.00580215
-0.00584942
-0.00589484
-0.00594129
-0.00598662
-0.00603239
-0.00608023
-0.0061255
-0.00617278
-0.00621813
-0.00626547
-0.00631053
-0.00635502
-0.00640073
-0.00644547
-0.0064939
-0.00654057
-0.00658844
-0.0066347
-0.00667987
-0.00672507
-0.00676968
-0.00681594
-0.00686286
-0.00690882
-0.00695307
-0.0069973
-0.00703988
-0.0070838
-0.0071259
-0.00716734
-0.00720731
-0.00724579
-0.00728184
-0.00731532
-0.00734422
-0.00737162
-0.00738858
-0.00740388
0.0010323
0.00159753
0.00218292
0.00260835
0.00278962
0.00273359
0.00251894
0.00222721
0.00190822
0.00157709
0.00123501
0.000892145
0.000560404
0.000237025
-9.1598e-05
-0.00043491
-0.000794108
-0.00117124
-0.00157955
-0.00202951
-0.00252316
-0.00306128
-0.00363845
-0.00423507
-0.00482241
-0.00536826
-0.00583406
-0.00617976
-0.00637164
-0.00639674
-0.00627289
-0.00604525
-0.00576942
-0.00549686
-0.00526118
-0.00507664
-0.00494362
-0.00485662
-0.00480961
-0.00479436
-0.00480232
-0.00482526
-0.00486047
-0.00490364
-0.0049511
-0.00500078
-0.00505316
-0.00510416
-0.00515353
-0.00520447
-0.00525588
-0.00530748
-0.00535728
-0.00540807
-0.00545859
-0.00550911
-0.0055583
-0.00560757
-0.00565748
-0.00570516
-0.00575319
-0.00579875
-0.00584613
-0.00589168
-0.00593828
-0.00598383
-0.00602978
-0.00607784
-0.00612329
-0.00617072
-0.00621606
-0.00626336
-0.00630842
-0.00635301
-0.00639891
-0.00644388
-0.00649243
-0.00653916
-0.00658692
-0.00663312
-0.00667826
-0.00672362
-0.00676838
-0.00681478
-0.00686165
-0.00690756
-0.00695174
-0.00699606
-0.00703868
-0.00708266
-0.00712475
-0.00716621
-0.00720618
-0.0072447
-0.00728085
-0.00731431
-0.00734344
-0.00737075
-0.00738864
-0.00740388
0.000844869
0.00141154
0.00201422
0.00247753
0.00271171
0.00270219
0.00250779
0.00221442
0.00188418
0.0015416
0.00119107
0.000843019
0.000509282
0.000186636
-0.000139567
-0.000479899
-0.000836326
-0.00120903
-0.001609
-0.00204805
-0.00252797
-0.00304657
-0.00359903
-0.00416828
-0.0047272
-0.00524626
-0.00569193
-0.00602997
-0.00623023
-0.00627848
-0.00618586
-0.00598879
-0.00573673
-0.00547956
-0.00525221
-0.00507139
-0.00493986
-0.00485364
-0.00480698
-0.00479172
-0.00479959
-0.00482239
-0.0048573
-0.00490018
-0.00494732
-0.00499659
-0.00504856
-0.0050994
-0.00514877
-0.00519966
-0.00525097
-0.00530257
-0.00535244
-0.00540326
-0.00545383
-0.0055045
-0.00555389
-0.00560331
-0.00565334
-0.00570118
-0.00574936
-0.00579509
-0.00584257
-0.00588826
-0.00593502
-0.00598082
-0.00602696
-0.00607526
-0.00612092
-0.00616847
-0.0062138
-0.00626105
-0.00630611
-0.00635083
-0.00639694
-0.00644217
-0.00649083
-0.00653762
-0.00658526
-0.00663138
-0.00667649
-0.00672202
-0.00676694
-0.00681349
-0.00686032
-0.00690616
-0.00695027
-0.00699467
-0.00703735
-0.00708139
-0.00712347
-0.00716494
-0.00720491
-0.00724346
-0.00727974
-0.00731315
-0.00734255
-0.00736981
-0.00738863
-0.00740387
0.000650266
0.0012211
0.00184098
0.00233638
0.00261697
0.00265465
0.00248823
0.00219988
0.00186179
0.00150813
0.00114788
0.000792574
0.000455182
0.000132616
-0.000191176
-0.000527782
-0.000880093
-0.00124759
-0.00163852
-0.00206514
-0.00253003
-0.00302861
-0.00355612
-0.00409837
-0.00462996
-0.00512335
-0.00554927
-0.0058787
-0.0060853
-0.00615432
-0.00609131
-0.00592515
-0.00569872
-0.00545905
-0.00524166
-0.00506545
-0.00493563
-0.00484997
-0.0048035
-0.00478821
-0.00479602
-0.00481874
-0.00485344
-0.00489611
-0.00494303
-0.00499192
-0.00504349
-0.00509422
-0.00514362
-0.00519447
-0.00524568
-0.00529726
-0.00534723
-0.00539813
-0.00544873
-0.00549956
-0.00554918
-0.00559876
-0.00564892
-0.00569693
-0.00574527
-0.00579116
-0.00583876
-0.00588459
-0.00593152
-0.00597758
-0.00602394
-0.00607248
-0.00611836
-0.00616606
-0.00621137
-0.00625856
-0.00630363
-0.00634848
-0.00639481
-0.00644033
-0.00648912
-0.00653595
-0.00658346
-0.00662949
-0.00667458
-0.00672029
-0.00676541
-0.0068121
-0.00685888
-0.00690464
-0.00694868
-0.00699316
-0.00703591
-0.00708
-0.00712209
-0.00716354
-0.00720354
-0.00724211
-0.00727855
-0.00731189
-0.00734159
-0.00736883
-0.00738852
-0.00740387
0.000448286
0.00102627
0.00166516
0.00218955
0.00251043
0.00259311
0.00245907
0.00218161
0.00183949
0.00147643
0.0011062
0.000742033
0.000398867
7.53189e-05
-0.00024616
-0.000578487
-0.000925025
-0.00128589
-0.00166748
-0.00208065
-0.00252898
-0.00300713
-0.0035099
-0.00402573
-0.00453103
-0.00499971
-0.00540615
-0.0057262
-0.00593727
-0.00602471
-0.00598956
-0.00585414
-0.00565486
-0.00543486
-0.00522927
-0.00505877
-0.00493104
-0.00484578
-0.00479914
-0.00478366
-0.00479139
-0.00481408
-0.00484874
-0.00489136
-0.00493819
-0.00498681
-0.00503802
-0.00508866
-0.0051381
-0.0051889
-0.00524001
-0.00529158
-0.00534164
-0.00539264
-0.00544331
-0.00549428
-0.00554413
-0.00559391
-0.00564421
-0.00569239
-0.00574088
-0.00578695
-0.00583466
-0.00588065
-0.00592775
-0.00597411
-0.00602071
-0.00606951
-0.00611561
-0.00616345
-0.00620876
-0.00625588
-0.00630095
-0.00634594
-0.00639253
-0.00643834
-0.00648727
-0.00653416
-0.00658152
-0.00662746
-0.00667252
-0.00671843
-0.00676377
-0.0068106
-0.00685733
-0.006903
-0.00694698
-0.00699152
-0.00703437
-0.00707849
-0.00712062
-0.00716204
-0.00720208
-0.00724064
-0.00727728
-0.00731055
-0.00734056
-0.00736781
-0.0073883
-0.00740387
0.000241884
0.000829963
0.00148961
0.00204072
0.00239597
0.00251949
0.00241939
0.00215727
0.00181455
0.00144445
0.0010656
0.000692165
0.00034163
1.5774e-05
-0.000303555
-0.000631335
-0.000971088
-0.0013239
-0.00169572
-0.0020949
-0.0025253
-0.00298243
-0.00346078
-0.00395068
-0.00443064
-0.00487555
-0.00526287
-0.005573
-0.00578688
-0.00589051
-0.00588141
-0.00577598
-0.00560469
-0.00540624
-0.00521428
-0.00505076
-0.00492575
-0.00484101
-0.00479397
-0.00477809
-0.00478572
-0.00480849
-0.00484322
-0.00488594
-0.00493277
-0.00498122
-0.00503213
-0.00508267
-0.00513215
-0.00518291
-0.00523395
-0.00528553
-0.00533565
-0.00538675
-0.00543752
-0.00548864
-0.00553871
-0.00558869
-0.00563914
-0.00568751
-0.00573616
-0.0057824
-0.00583025
-0.00587642
-0.00592371
-0.00597037
-0.00601723
-0.00606631
-0.00611265
-0.00616065
-0.00620595
-0.00625299
-0.00629808
-0.00634322
-0.00639008
-0.00643621
-0.00648528
-0.00653222
-0.00657943
-0.00662527
-0.00667032
-0.00671642
-0.00676201
-0.00680899
-0.00685567
-0.00690122
-0.00694516
-0.00698976
-0.00703273
-0.00707687
-0.00711905
-0.00716041
-0.00720053
-0.00723908
-0.00727593
-0.00730912
-0.00733945
-0.00736675
-0.00738796
-0.00740385
3.60202e-05
0.00063516
0.00131542
0.00189064
0.00227471
0.00243384
0.00236754
0.00212461
0.00178482
0.00141044
0.00102544
0.000643889
0.000284969
-4.51077e-05
-0.000363115
-0.000686182
-0.00101873
-0.00136223
-0.001723
-0.00210781
-0.00251964
-0.00295504
-0.00340896
-0.00387336
-0.00432887
-0.00475115
-0.00511989
-0.00541967
-0.00563494
-0.00575249
-0.00576736
-0.00569077
-0.00554757
-0.00537205
-0.00519573
-0.00504094
-0.00491971
-0.00483596
-0.00478846
-0.0047718
-0.00477909
-0.0048019
-0.0048367
-0.00487955
-0.00492653
-0.00497495
-0.00502567
-0.00507617
-0.00512572
-0.00517647
-0.00522747
-0.00527907
-0.00532924
-0.00538038
-0.00543128
-0.00548259
-0.0055329
-0.00558309
-0.00563373
-0.00568231
-0.00573111
-0.00577753
-0.00582551
-0.00587187
-0.00591936
-0.00596635
-0.0060135
-0.00606288
-0.00610949
-0.00615762
-0.00620293
-0.00624988
-0.00629499
-0.00634029
-0.00638744
-0.00643392
-0.00648315
-0.00653013
-0.0065772
-0.00662291
-0.00666796
-0.00671426
-0.00676012
-0.00680726
-0.0068539
-0.0068993
-0.0069432
-0.00698788
-0.00703098
-0.00707513
-0.00711737
-0.00715868
-0.00719887
-0.0072374
-0.00727448
-0.00730761
-0.00733825
-0.00736564
-0.00738749
-0.00740381
-0.000166491
0.000442041
0.00114124
0.00173851
0.00214735
0.002337
0.00230317
0.00208266
0.00174976
0.0013734
0.000984416
0.000596696
0.000229431
-0.000106586
-0.000424489
-0.000742568
-0.00106758
-0.00140099
-0.00174912
-0.00211897
-0.00251244
-0.00292561
-0.00335458
-0.00379368
-0.00422568
-0.00462672
-0.00497757
-0.00526658
-0.00548203
-0.0056114
-0.00564785
-0.00559862
-0.00548327
-0.0053317
-0.005173
-0.00502894
-0.00491273
-0.00483046
-0.0047825
-0.00476466
-0.00477123
-0.00479403
-0.004829
-0.00487209
-0.00491942
-0.004968
-0.00501861
-0.00506913
-0.00511877
-0.00516954
-0.00522049
-0.0052721
-0.00532235
-0.00537355
-0.00542458
-0.00547615
-0.00552673
-0.00557709
-0.00562791
-0.00567672
-0.00572566
-0.00577226
-0.00582039
-0.00586696
-0.0059147
-0.00596205
-0.00600951
-0.0060592
-0.0061061
-0.00615436
-0.00619966
-0.00624652
-0.00629168
-0.00633715
-0.00638462
-0.00643146
-0.00648087
-0.00652788
-0.0065748
-0.00662038
-0.00666542
-0.00671194
-0.0067581
-0.0068054
-0.00685201
-0.00689724
-0.0069411
-0.00698585
-0.00702912
-0.00707327
-0.00711557
-0.00715681
-0.0071971
-0.00723562
-0.00727294
-0.00730602
-0.00733694
-0.00736448
-0.0073869
-0.0074037
-0.000365368
0.000249938
0.000966013
0.00158401
0.00201527
0.00223108
0.00222695
0.00203069
0.00170824
0.00133187
0.000940543
0.000549155
0.000175177
-0.000167398
-0.000486419
-0.000799743
-0.00111686
-0.00143985
-0.00177428
-0.0021282
-0.00250351
-0.00289462
-0.00329805
-0.00371171
-0.00412116
-0.00450254
-0.00483645
-0.0051143
-0.0053287
-0.00546803
-0.00552373
-0.00550007
-0.00541198
-0.00528488
-0.00514522
-0.00501363
-0.00490392
-0.0048239
-0.00477585
-0.00475693
-0.00476242
-0.00478501
-0.00482019
-0.00486355
-0.00491124
-0.00496009
-0.00501074
-0.00506143
-0.00511126
-0.00516205
-0.005213
-0.00526465
-0.00531502
-0.00536629
-0.0054174
-0.0054692
-0.00552011
-0.00557064
-0.00562161
-0.00567068
-0.00571983
-0.00576663
-0.00581491
-0.0058617
-0.00590969
-0.00595742
-0.00600522
-0.00605525
-0.00610246
-0.00615087
-0.00619618
-0.00624291
-0.00628812
-0.00633378
-0.0063816
-0.00642881
-0.00647843
-0.00652548
-0.00657223
-0.00661765
-0.00666271
-0.00670944
-0.00675595
-0.0068034
-0.00685
-0.00689504
-0.00693885
-0.00698367
-0.00702714
-0.00707128
-0.00711364
-0.00715483
-0.0071952
-0.00723373
-0.00727128
-0.00730436
-0.00733553
-0.00736323
-0.00738618
-0.00740353
-0.000562299
5.78176e-05
0.000788872
0.00142677
0.00187917
0.00211755
0.00213915
0.00196727
0.00165865
0.00128506
0.000892953
0.000500323
0.000122104
-0.000226524
-0.000547794
-0.000857286
-0.00116629
-0.00147844
-0.00179889
-0.00213581
-0.00249242
-0.00286225
-0.00324047
-0.00362818
-0.00401555
-0.00437881
-0.00469707
-0.00496366
-0.00517563
-0.00532324
-0.00539606
-0.00539562
-0.00533366
-0.00523113
-0.00511134
-0.00499391
-0.00489269
-0.00481625
-0.00476874
-0.0047489
-0.00475297
-0.00477483
-0.00481009
-0.00485375
-0.00490182
-0.00495108
-0.00500199
-0.00505299
-0.00510313
-0.00515397
-0.00520493
-0.00525667
-0.00530716
-0.00535852
-0.0054097
-0.00546167
-0.00551299
-0.00556381
-0.00561493
-0.00566425
-0.00571362
-0.00576059
-0.005809
-0.00585601
-0.00590429
-0.00595248
-0.00600067
-0.00605104
-0.00609859
-0.00614713
-0.00619243
-0.006239
-0.00628428
-0.00633016
-0.00637836
-0.006426
-0.00647583
-0.0065229
-0.00656947
-0.00661472
-0.0066598
-0.00670677
-0.00675366
-0.00680126
-0.00684784
-0.00689268
-0.00693645
-0.00698132
-0.00702501
-0.00706917
-0.00711157
-0.00715272
-0.00719317
-0.00723173
-0.00726951
-0.00730261
-0.00733399
-0.0073619
-0.00738534
-0.00740328
-0.000757813
-0.000133811
0.000610257
0.00126675
0.00173909
0.00199744
0.00204103
0.00189242
0.00160054
0.00123293
0.000841621
0.00044931
6.92527e-05
-0.000283883
-0.000607657
-0.000914147
-0.0012152
-0.00151616
-0.00182259
-0.00214204
-0.00247912
-0.00282853
-0.0031831
-0.00354454
-0.00390919
-0.00425539
-0.00455966
-0.00481529
-0.0050233
-0.00517727
-0.00526528
-0.00528578
-0.00524839
-0.0051704
-0.00507122
-0.00496927
-0.00487834
-0.00480709
-0.00476079
-0.0047402
-0.00474286
-0.00476365
-0.0047987
-0.00484271
-0.00489122
-0.00494093
-0.00499225
-0.0050437
-0.00509424
-0.00514525
-0.00519624
-0.00524806
-0.0052987
-0.00535019
-0.00540154
-0.0054537
-0.00550541
-0.00555657
-0.00560782
-0.00565729
-0.00570685
-0.00575407
-0.00580267
-0.00584995
-0.00589854
-0.00594721
-0.00599582
-0.00604654
-0.00609443
-0.00614308
-0.0061884
-0.0062348
-0.00628017
-0.00632629
-0.00637493
-0.00642301
-0.00647304
-0.00652011
-0.0065665
-0.00661158
-0.00665669
-0.00670391
-0.0067512
-0.00679898
-0.00684551
-0.00689015
-0.00693388
-0.00697884
-0.00702272
-0.00706692
-0.00710937
-0.00715048
-0.007191
-0.00722961
-0.0072676
-0.00730077
-0.00733233
-0.00736047
-0.00738437
-0.00740291
-0.000951277
-0.000323738
0.000431192
0.00110414
0.00159512
0.00187228
0.0019354
0.00180797
0.00153407
0.00117531
0.000786377
0.00039537
1.56494e-05
-0.00033964
-0.000665193
-0.00096911
-0.00126286
-0.00155279
-0.00184508
-0.00214723
-0.00246444
-0.00279351
-0.00312612
-0.00346197
-0.00380264
-0.00413186