/*--------------------------------*- C++ -*----------------------------------*\
| =========                 |                                                 |
| \\      /  F ield         | OpenFOAM: The Open Source CFD Toolbox           |
|  \\    /   O peration     | Version:  v2106                                 |
|   \\  /    A nd           | Website:  www.openfoam.com                      |
|    \\/     M anipulation  |                                                 |
\*---------------------------------------------------------------------------*/
FoamFile
{
    version     2.0;
    format      ascii;
    arch        "LSB;label=32;scalar=64";
    class       surfaceScalarField;
    location    "1.8";
    object      phi;
}
// * * * * * * * * * * * * * * * * * * * * * * * * * * * * * * * * * * * * * //

dimensions      [0 3 -1 0 0 0 0];

oriented        oriented;

internalField   nonuniform List<scalar> 
9440
(
3.88232e-06
1.41838e-08
3.87746e-06
-2.37043e-08
3.87967e-06
-7.80774e-09
3.87666e-06
-2.59673e-08
3.87983e-06
1.63047e-08
3.87847e-06
-1.93308e-08
3.88024e-06
2.21618e-10
3.87911e-06
-3.17289e-08
3.88113e-06
-2.96306e-09
3.87993e-06
-3.46184e-08
3.88158e-06
-5.31423e-09
3.88074e-06
-2.7615e-08
3.88202e-06
-3.4163e-09
3.88143e-06
-1.68209e-08
3.88274e-06
1.72819e-09
3.8827e-06
-9.146e-09
3.88187e-06
7.82448e-09
3.87854e-06
-3.42204e-11
3.86423e-06
2.52224e-08
3.37246e-08
3.84292e-06
4.18408e-06
1.59625e-08
4.18656e-06
-2.61861e-08
4.18364e-06
-4.88785e-09
4.18579e-06
-2.81132e-08
4.1851e-06
1.69913e-08
4.18686e-06
-2.10931e-08
4.18643e-06
6.57056e-10
4.18595e-06
-3.12503e-08
4.18695e-06
-3.96643e-09
4.18478e-06
-3.24407e-08
4.18684e-06
-7.37496e-09
4.18442e-06
-2.5195e-08
4.1872e-06
-6.19795e-09
4.1852e-06
-1.48209e-08
4.18815e-06
-1.22686e-09
4.18371e-06
-4.70101e-09
4.18204e-06
9.49411e-09
4.17115e-06
1.08506e-08
4.166e-06
3.03718e-08
3.90324e-08
4.1607e-06
4.51855e-06
1.74768e-08
4.52024e-06
-2.78821e-08
4.51891e-06
-3.55729e-09
4.51911e-06
-2.83051e-08
4.5208e-06
1.5299e-08
4.51994e-06
-2.02335e-08
4.5225e-06
-1.90841e-09
4.5192e-06
-2.79476e-08
4.52335e-06
-8.11804e-09
4.51834e-06
-2.74323e-08
4.52331e-06
-1.23448e-08
4.51799e-06
-1.9872e-08
4.52405e-06
-1.22538e-08
4.52017e-06
-1.09488e-08
4.52468e-06
-5.73534e-09
4.51978e-06
1.9952e-10
4.52152e-06
7.75262e-09
4.51482e-06
1.75565e-08
4.51308e-06
3.21127e-08
5.20272e-08
4.50008e-06
4.88124e-06
1.71868e-08
4.88075e-06
-2.73911e-08
4.88224e-06
-5.05494e-09
4.87996e-06
-2.60244e-08
4.88407e-06
1.11943e-08
4.88099e-06
-1.71589e-08
4.88544e-06
-6.35902e-09
4.881e-06
-2.3506e-08
4.88579e-06
-1.29069e-08
4.88171e-06
-2.33526e-08
4.88611e-06
-1.67383e-08
4.88465e-06
-1.84189e-08
4.88699e-06
-1.45922e-08
4.88547e-06
-9.42592e-09
4.88685e-06
-7.1187e-09
4.8854e-06
1.65076e-09
4.88413e-06
9.0267e-09
4.87925e-06
2.24307e-08
4.86833e-06
4.30387e-08
5.88936e-08
4.86146e-06
5.27162e-06
1.62143e-08
5.26998e-06
-2.57514e-08
5.27322e-06
-8.2995e-09
5.26963e-06
-2.24319e-08
5.27499e-06
5.83237e-09
5.27116e-06
-1.3327e-08
5.27597e-06
-1.11679e-08
5.27221e-06
-1.97485e-08
5.27677e-06
-1.74685e-08
5.27569e-06
-2.22719e-08
5.27786e-06
-1.8904e-08
5.27682e-06
-1.73794e-08
5.27852e-06
-1.62897e-08
5.27785e-06
-8.75559e-09
5.27806e-06
-7.32859e-09
5.27626e-06
3.45176e-09
5.26951e-06
1.57705e-08
5.25694e-06
3.50061e-08
5.25056e-06
4.94162e-08
5.98616e-08
5.24959e-06
5.69267e-06
1.50086e-08
5.69014e-06
-2.32249e-08
5.6947e-06
-1.28591e-08
5.69062e-06
-1.83585e-08
5.69612e-06
3.37476e-10
5.69317e-06
-1.03786e-08
5.69701e-06
-1.50113e-08
5.69714e-06
-1.98705e-08
5.69879e-06
-1.9125e-08
5.69898e-06
-2.24558e-08
5.70003e-06
-1.99524e-08
5.70018e-06
-1.75327e-08
5.70045e-06
-1.65623e-08
5.70078e-06
-9.08038e-09
5.69827e-06
-4.82572e-09
5.69099e-06
1.0734e-08
5.67771e-06
2.90563e-08
5.67156e-06
4.11522e-08
5.66948e-06
5.14947e-08
6.05091e-08
5.66883e-06
6.14722e-06
1.36608e-08
6.14418e-06
-2.01873e-08
6.14925e-06
-1.79306e-08
6.14617e-06
-1.52723e-08
6.15057e-06
-4.06332e-09
6.15042e-06
-1.02275e-08
6.15186e-06
-1.64577e-08
6.15341e-06
-2.14169e-08
6.15487e-06
-2.05845e-08
6.15545e-06
-2.30402e-08
6.15599e-06
-2.04923e-08
6.15662e-06
-1.81654e-08
6.15571e-06
-1.56508e-08
6.15392e-06
-7.28708e-09
6.1438e-06
5.29866e-09
6.1321e-06
2.24306e-08
6.12642e-06
3.4731e-08
6.12366e-06
4.39175e-08
6.12252e-06
5.26319e-08
6.0588e-08
6.12244e-06
6.638e-06
1.22222e-08
6.63494e-06
-1.71301e-08
6.63937e-06
-2.236e-08
6.63898e-06
-1.48849e-08
6.6409e-06
-5.9773e-09
6.64267e-06
-1.19946e-08
6.64482e-06
-1.86104e-08
6.64612e-06
-2.27136e-08
6.64743e-06
-2.19e-08
6.64798e-06
-2.35889e-08
6.64845e-06
-2.09608e-08
6.64801e-06
-1.77314e-08
6.645e-06
-1.26407e-08
6.63534e-06
2.37456e-09
6.62311e-06
1.75328e-08
6.61764e-06
2.7903e-08
6.61463e-06
3.77401e-08
6.61315e-06
4.53967e-08
6.6124e-06
5.33798e-08
6.08938e-08
6.61209e-06
7.16791e-06
1.07406e-08
7.16516e-06
-1.43803e-08
7.16626e-06
-2.34561e-08
7.16966e-06
-1.82835e-08
7.17181e-06
-8.12803e-09
7.17413e-06
-1.43213e-08
7.17667e-06
-2.11462e-08
7.17804e-06
-2.40807e-08
7.17918e-06
-2.30379e-08
7.17943e-06
-2.38453e-08
7.17971e-06
-2.12372e-08
7.17702e-06
-1.50403e-08
7.16663e-06
-2.25709e-09
7.15412e-06
1.48832e-08
7.14815e-06
2.35032e-08
7.14501e-06
3.10465e-08
7.14338e-06
3.93676e-08
7.14186e-06
4.692e-08
7.14093e-06
5.43074e-08
6.08914e-08
7.14093e-06
7.74015e-06
9.19235e-09
7.73717e-06
-1.14011e-08
7.73812e-06
-2.44079e-08
7.74037e-06
-2.05274e-08
7.74569e-06
-1.34489e-08
7.74848e-06
-1.71076e-08
7.75094e-06
-2.36097e-08
7.75206e-06
-2.51981e-08
7.75312e-06
-2.41043e-08
7.75238e-06
-2.31001e-08
7.74892e-06
-1.77751e-08
7.7368e-06
-2.92387e-09
7.72492e-06
9.62153e-09
7.72086e-06
1.89476e-08
7.71809e-06
2.62725e-08
7.71617e-06
3.29667e-08
7.71421e-06
4.1325e-08
7.71265e-06
4.84773e-08
7.71192e-06
5.50367e-08
6.07243e-08
7.71209e-06
8.35801e-06
7.63893e-09
8.35485e-06
-8.24129e-09
8.35567e-06
-2.52287e-08
8.35676e-06
-2.16163e-08
8.36356e-06
-2.02444e-08
8.36861e-06
-2.21536e-08
8.37101e-06
-2.60161e-08
8.37179e-06
-2.59758e-08
8.37088e-06
-2.31961e-08
8.36644e-06
-1.8659e-08
8.35378e-06
-5.11172e-09
8.3435e-06
7.35015e-09
8.33903e-06
1.40906e-08
8.33676e-06
2.1218e-08
8.33471e-06
2.83305e-08
8.33241e-06
3.52589e-08
8.33068e-06
4.30561e-08
8.32929e-06
4.98727e-08
8.32863e-06
5.56945e-08
6.02715e-08
8.32908e-06
9.0252e-06
6.08834e-09
9.02232e-06
-5.36282e-09
9.02295e-06
-2.58635e-08
9.02474e-06
-2.33977e-08
9.03101e-06
-2.65201e-08
9.03716e-06
-2.82996e-08
9.04026e-06
-2.91158e-08
9.0394e-06
-2.5123e-08
9.03351e-06
-1.73055e-08
9.02115e-06
-6.29978e-09
9.01125e-06
4.7925e-09
9.00716e-06
1.14438e-08
9.00486e-06
1.63825e-08
9.00264e-06
2.34459e-08
9.00022e-06
3.07422e-08
8.99811e-06
3.73783e-08
8.99647e-06
4.46908e-08
8.99532e-06
5.1027e-08
8.99501e-06
5.59988e-08
5.99621e-08
8.99532e-06
9.74551e-06
4.67961e-09
9.74499e-06
-4.84549e-09
9.74399e-06
-2.48611e-08
9.74758e-06
-2.69872e-08
9.75191e-06
-3.08538e-08
9.75896e-06
-3.53489e-08
9.76095e-06
-3.10967e-08
9.75364e-06
-1.78171e-08
9.74139e-06
-5.05903e-09
9.73225e-06
2.84675e-09
9.7285e-06
8.53854e-09
9.72648e-06
1.34628e-08
9.72384e-06
1.90209e-08
9.72155e-06
2.57387e-08
9.71916e-06
3.31317e-08
9.71705e-06
3.94853e-08
9.7156e-06
4.61436e-08
9.71489e-06
5.17408e-08
9.7146e-06
5.62855e-08
5.96784e-08
9.71488e-06
1.05234e-05
3.34242e-09
1.05273e-05
-8.76447e-09
1.05252e-05
-2.26903e-08
1.05297e-05
-3.14754e-08
1.05294e-05
-3.06315e-08
1.05304e-05
-3.63507e-08
1.05219e-05
-2.2566e-08
1.05154e-05
-1.13159e-08
1.05105e-05
-1.25729e-10
1.05081e-05
5.25659e-09
1.05057e-05
1.08917e-08
1.05029e-05
1.62305e-08
1.05003e-05
2.16844e-08
1.04979e-05
2.81019e-08
1.04957e-05
3.53705e-08
1.04937e-05
4.14491e-08
1.04925e-05
4.73029e-08
1.04919e-05
5.23502e-08
1.04917e-05
5.64809e-08
5.93073e-08
1.04921e-05
1.13638e-05
1.75918e-09
1.13672e-05
-1.22476e-08
1.13713e-05
-2.67591e-08
1.13711e-05
-3.12354e-08
1.13691e-05
-2.86334e-08
1.136e-05
-2.72887e-08
1.13547e-05
-1.72617e-08
1.13503e-05
-6.87696e-09
1.13486e-05
1.5599e-09
1.13468e-05
7.02736e-09
1.13444e-05
1.32511e-08
1.13417e-05
1.89349e-08
1.13389e-05
2.45265e-08
1.13365e-05
3.04816e-08
1.13345e-05
3.74277e-08
1.13328e-05
4.31537e-08
1.13317e-05
4.83175e-08
1.13312e-05
5.28755e-08
1.13312e-05
5.65091e-08
5.88208e-08
1.13317e-05
1.2271e-05
1.41012e-10
1.2275e-05
-1.63019e-08
1.22793e-05
-3.10972e-08
1.22788e-05
-3.06906e-08
1.22771e-05
-2.69657e-08
1.22682e-05
-1.84012e-08
1.22602e-05
-9.23602e-09
1.22564e-05
-3.01588e-09
1.22543e-05
3.61843e-09
1.22523e-05
8.97935e-09
1.22501e-05
1.55334e-08
1.22475e-05
2.14656e-08
1.22448e-05
2.72522e-08
1.22424e-05
3.28641e-08
1.22405e-05
3.93437e-08
1.22391e-05
4.45659e-08
1.22381e-05
4.92707e-08
1.22378e-05
5.32429e-08
1.22379e-05
5.63693e-08
5.82181e-08
1.22385e-05
1.32504e-05
-1.31009e-09
1.32539e-05
-1.97953e-08
1.32571e-05
-3.42859e-08
1.32559e-05
-2.95305e-08
1.3249e-05
-2.00974e-08
1.32432e-05
-1.25217e-08
1.32386e-05
-4.67234e-09
1.32352e-05
3.33623e-10
1.32327e-05
6.12727e-09
1.32305e-05
1.118e-08
1.32282e-05
1.78476e-08
1.32259e-05
2.38038e-08
1.32233e-05
2.97893e-08
1.3221e-05
3.51622e-08
1.32193e-05
4.11187e-08
1.3218e-05
4.58003e-08
1.32172e-05
5.0058e-08
1.3217e-05
5.3449e-08
1.32173e-05
5.60731e-08
5.75e-08
1.32181e-05
1.43079e-05
-2.4743e-09
1.43105e-05
-2.24026e-08
1.43117e-05
-3.54859e-08
1.43105e-05
-2.82843e-08
1.43037e-05
-1.33614e-08
1.42983e-05
-7.10121e-09
1.42949e-05
-1.30986e-09
1.42923e-05
3.02374e-09
1.42897e-05
8.71073e-09
1.42872e-05
1.3678e-08
1.42848e-05
2.02306e-08
1.42826e-05
2.60394e-08
1.42803e-05
3.20903e-08
1.42781e-05
3.72794e-08
1.42765e-05
4.27208e-08
1.42755e-05
4.68711e-08
1.42749e-05
5.0649e-08
1.42748e-05
5.34942e-08
1.42753e-05
5.56322e-08
5.667e-08
1.42761e-05
1.54497e-05
-3.21944e-09
1.54493e-05
-2.19466e-08
1.54468e-05
-3.29729e-08
1.54448e-05
-2.63511e-08
1.54428e-05
-1.12959e-08
1.54395e-05
-3.83361e-09
1.54364e-05
1.78015e-09
1.54336e-05
5.82071e-09
1.54311e-05
1.12508e-08
1.54285e-05
1.62107e-08
1.54261e-05
2.26608e-08
1.54239e-05
2.82551e-08
1.54218e-05
3.4167e-08
1.542e-05
3.91354e-08
1.54186e-05
4.41134e-08
1.54177e-05
4.77489e-08
1.54173e-05
5.10474e-08
1.54174e-05
5.33769e-08
1.5418e-05
5.5053e-08
5.57252e-08
1.54189e-05
1.66828e-05
-3.58737e-09
1.66814e-05
-2.05402e-08
1.66768e-05
-2.83347e-08
1.66738e-05
-2.33717e-08
1.6673e-05
-1.0506e-08
1.66717e-05
-2.55045e-09
1.66693e-05
4.20235e-09
1.66665e-05
8.61889e-09
1.66638e-05
1.39338e-08
1.66613e-05
1.86934e-08
1.66589e-05
2.50748e-08
1.66568e-05
3.04203e-08
1.66549e-05
3.60448e-08
1.66533e-05
4.07106e-08
1.66522e-05
4.52389e-08
1.66515e-05
4.84234e-08
1.66513e-05
5.1259e-08
1.66516e-05
5.31056e-08
1.66523e-05
5.43455e-08
5.46714e-08
1.66533e-05
1.80144e-05
-3.60098e-09
1.80113e-05
-1.73965e-08
1.80075e-05
-2.45603e-08
1.80045e-05
-2.04064e-08
1.80033e-05
-9.27682e-09
1.80023e-05
-1.5518e-09
1.80006e-05
5.93234e-09
1.7998e-05
1.11662e-08
1.79953e-05
1.6649e-08
1.79928e-05
2.11891e-08
1.79905e-05
2.73831e-08
1.79885e-05
3.24613e-08
1.79868e-05
3.77355e-08
1.79855e-05
4.20289e-08
1.79846e-05
4.60716e-08
1.79842e-05
4.88785e-08
1.79842e-05
5.12754e-08
1.79846e-05
5.26742e-08
1.79854e-05
5.35024e-08
5.35088e-08
1.79866e-05
1.94525e-05
-3.36893e-09
1.94493e-05
-1.4209e-08
1.94453e-05
-2.06131e-08
1.94425e-05
-1.75678e-08
1.94409e-05
-7.65316e-09
1.94396e-05
-2.74467e-10
1.94381e-05
7.44742e-09
1.9436e-05
1.32761e-08
1.94334e-05
1.92396e-08
1.94309e-05
2.36558e-08
1.94287e-05
2.95596e-08
1.94268e-05
3.43396e-08
1.94253e-05
3.92369e-08
1.94243e-05
4.31142e-08
1.94237e-05
4.6588e-08
1.94235e-05
4.90985e-08
1.94237e-05
5.10748e-08
1.94243e-05
5.20686e-08
1.94253e-05
5.25188e-08
5.22346e-08
1.94266e-05
2.10054e-05
-2.95232e-09
2.10029e-05
-1.17039e-08
2.09987e-05
-1.64402e-08
2.09956e-05
-1.45036e-08
2.09937e-05
-5.7557e-09
2.09921e-05
1.3456e-09
2.09905e-05
9.04569e-09
2.09887e-05
1.5106e-08
2.09864e-05
2.15193e-08
2.09841e-05
2.60044e-08
2.09821e-05
3.15731e-08
2.09804e-05
3.60127e-08
2.09791e-05
4.05129e-08
2.09783e-05
4.39067e-08
2.0978e-05
4.68631e-08
2.09781e-05
4.90545e-08
2.09785e-05
5.06452e-08
2.09793e-05
5.12832e-08
2.09804e-05
5.13964e-08
5.0846e-08
2.09818e-05
2.26824e-05
-2.38846e-09
2.268e-05
-9.35784e-09
2.26762e-05
-1.26315e-08
2.2673e-05
-1.13125e-08
2.26709e-05
-3.63359e-09
2.2669e-05
3.20778e-09
2.26673e-05
1.07972e-08
2.26656e-05
1.68274e-08
2.26636e-05
2.34633e-08
2.26615e-05
2.80771e-08
2.26597e-05
3.33755e-08
2.26583e-05
3.74412e-08
2.26573e-05
4.15305e-08
2.26568e-05
4.43584e-08
2.26568e-05
4.69508e-08
2.26571e-05
4.87483e-08
2.26577e-05
4.99789e-08
2.26587e-05
5.03021e-08
2.266e-05
5.0129e-08
4.93393e-08
2.26615e-05
2.44933e-05
-1.7651e-09
2.44914e-05
-7.48022e-09
2.44879e-05
-9.05425e-09
2.44845e-05
-7.96979e-09
2.44822e-05
-1.26804e-09
2.44801e-05
5.22718e-09
2.44783e-05
1.26724e-08
2.44766e-05
1.85041e-08
2.44749e-05
2.51285e-08
2.44732e-05
2.9797e-08
2.44717e-05
3.48927e-08
2.44705e-05
3.86004e-08
2.44698e-05
4.22135e-08
2.44697e-05
4.45427e-08
2.44698e-05
4.68103e-08
2.44704e-05
4.81906e-08
2.44713e-05
4.90837e-08
2.44724e-05
4.91175e-08
2.44739e-05
4.87094e-08
4.77142e-08
2.44755e-05
2.64489e-05
-1.10776e-09
2.64471e-05
-5.65552e-09
2.6444e-05
-5.93494e-09
2.64407e-05
-4.72337e-09
2.64382e-05
1.22078e-09
2.64361e-05
7.34202e-09
2.64342e-05
1.45824e-08
2.64326e-05
2.0141e-08
2.64311e-05
2.65714e-08
2.64298e-05
3.11615e-08
2.64286e-05
3.60611e-08
2.64277e-05
3.94412e-08
2.64275e-05
4.24984e-08
2.64275e-05
4.45181e-08
2.64279e-05
4.63836e-08
2.64287e-05
4.73699e-08
2.64299e-05
4.79557e-08
2.64313e-05
4.77291e-08
2.64328e-05
4.71234e-08
4.59646e-08
2.64346e-05
2.85607e-05
-4.5528e-10
2.8559e-05
-4.00624e-09
2.85563e-05
-3.17197e-09
2.85531e-05
-1.61769e-09
2.85506e-05
3.78118e-09
2.85484e-05
9.48078e-09
2.85466e-05
1.64398e-08
2.8545e-05
2.17e-08
2.85438e-05
2.77973e-08
2.85428e-05
3.21744e-08
2.8542e-05
3.68198e-08
2.85416e-05
3.98553e-08
2.85416e-05
4.24917e-08
2.8542e-05
4.41869e-08
2.85427e-05
4.56723e-08
2.85437e-05
4.62926e-08
2.85451e-05
4.6589e-08
2.85467e-05
4.61398e-08
2.85485e-05
4.53662e-08
4.40812e-08
2.85503e-05
3.08411e-05
1.69307e-10
3.08394e-05
-2.37466e-09
3.0837e-05
-7.07537e-10
3.08342e-05
1.18559e-09
3.08317e-05
6.23852e-09
3.08297e-05
1.1519e-08
3.08279e-05
1.81514e-08
3.08265e-05
2.31217e-08
3.08255e-05
2.87979e-08
3.08248e-05
3.28628e-08
3.08245e-05
3.71665e-08
3.08245e-05
3.98212e-08
3.08248e-05
4.21678e-08
3.08255e-05
4.35196e-08
3.08265e-05
4.46608e-08
3.08279e-05
4.49568e-08
3.08295e-05
4.49906e-08
3.08313e-05
4.43483e-08
3.08332e-05
4.34463e-08
4.20612e-08
3.08352e-05
3.33035e-05
7.35326e-10
3.33021e-05
-9.2301e-10
3.32999e-05
1.51651e-09
3.32973e-05
3.72906e-09
3.3295e-05
8.56624e-09
3.32931e-05
1.33829e-08
3.32917e-05
1.96248e-08
3.32905e-05
2.42903e-08
3.32898e-05
2.95158e-08
3.32894e-05
3.32188e-08
3.32895e-05
3.71168e-08
3.32899e-05
3.93558e-08
3.32906e-05
4.14839e-08
3.32916e-05
4.25108e-08
3.32929e-05
4.33434e-08
3.32945e-05
4.33556e-08
3.32964e-05
4.31673e-08
3.32984e-05
4.23499e-08
3.33004e-05
4.13574e-08
3.98976e-08
3.33026e-05
3.59626e-05
1.24568e-09
3.59613e-05
4.35935e-10
3.59593e-05
3.45846e-09
3.59571e-05
5.89938e-09
3.59551e-05
1.06359e-08
3.59534e-05
1.50284e-08
3.59523e-05
2.07948e-08
3.59514e-05
2.51452e-08
3.5951e-05
2.98855e-08
3.5951e-05
3.32105e-08
3.59515e-05
3.66294e-08
3.59524e-05
3.85185e-08
3.59535e-05
4.03898e-08
3.59548e-05
4.11373e-08
3.59565e-05
4.17086e-08
3.59584e-05
4.14771e-08
3.59604e-05
4.11146e-08
3.59626e-05
4.0151e-08
3.59649e-05
3.90958e-08
3.75963e-08
3.59672e-05
3.88341e-05
1.65112e-09
3.88328e-05
1.66012e-09
3.88312e-05
5.12891e-09
3.88294e-05
7.66946e-09
3.88276e-05
1.23909e-08
3.88263e-05
1.63766e-08
3.88255e-05
2.1599e-08
3.8825e-05
2.56085e-08
3.88251e-05
2.98456e-08
3.88255e-05
3.27974e-08
3.88264e-05
3.56806e-08
3.88276e-05
3.73286e-08
3.88291e-05
3.8904e-08
3.88308e-05
3.9396e-08
3.88328e-05
3.97602e-08
3.88349e-05
3.93251e-08
3.88372e-05
3.88331e-08
3.88396e-05
3.77607e-08
3.8842e-05
3.6666e-08
3.51573e-08
3.88445e-05
4.19347e-05
1.97701e-09
4.19337e-05
2.68672e-09
4.19323e-05
6.50497e-09
4.19309e-05
9.06572e-09
4.19296e-05
1.36985e-08
4.19286e-05
1.73356e-08
4.19283e-05
2.19854e-08
4.19282e-05
2.56161e-08
4.19287e-05
2.93676e-08
4.19296e-05
3.19024e-08
4.19309e-05
3.4365e-08
4.19325e-05
3.57347e-08
4.19344e-05
3.702e-08
4.19365e-05
3.7288e-08
4.19388e-05
3.7479e-08
4.19412e-05
3.68945e-08
4.19438e-05
3.63063e-08
4.19463e-05
3.51709e-08
4.1949e-05
3.40622e-08
3.25724e-08
4.19515e-05
4.52829e-05
2.21651e-09
4.52821e-05
3.50003e-09
4.52811e-05
7.54196e-09
4.52801e-05
1.0021e-08
4.52793e-05
1.44799e-08
4.52788e-05
1.78792e-08
4.52789e-05
2.19098e-08
4.52794e-05
2.51212e-08
4.52803e-05
2.83827e-08
4.52817e-05
3.05597e-08
4.52834e-05
3.26492e-08
4.52854e-05
3.37115e-08
4.52877e-05
3.47333e-08
4.52902e-05
3.48054e-08
4.52928e-05
3.48616e-08
4.52955e-05
3.41713e-08
4.52983e-05
3.35308e-08
4.53011e-05
3.2369e-08
4.53039e-05
3.12821e-08
2.98361e-08
4.53066e-05
4.88985e-05
2.36606e-09
4.88979e-05
4.03744e-09
4.88972e-05
8.23695e-09
4.88967e-05
1.0538e-08
4.88965e-05
1.47037e-08
4.88965e-05
1.78745e-08
4.88971e-05
2.13071e-08
4.88981e-05
2.40686e-08
4.88996e-05
2.68939e-08
4.89014e-05
2.87408e-08
4.89036e-05
3.0483e-08
4.89061e-05
3.12664e-08
4.89087e-05
3.20591e-08
4.89116e-05
3.19706e-08
4.89145e-05
3.19219e-08
4.89175e-05
3.11695e-08
4.89205e-05
3.05083e-08
4.89235e-05
2.93593e-08
4.89265e-05
2.83182e-08
2.69461e-08
4.89294e-05
5.28027e-05
2.41334e-09
5.28024e-05
4.26899e-09
5.28022e-05
8.47711e-09
5.28021e-05
1.06321e-08
5.28024e-05
1.43703e-08
5.2803e-05
1.72708e-08
5.28042e-05
2.01216e-08
5.28058e-05
2.24725e-08
5.28078e-05
2.48707e-08
5.28102e-05
2.64066e-08
5.28128e-05
2.78296e-08
5.28157e-05
2.83818e-08
5.28188e-05
2.89777e-08
5.2822e-05
2.87777e-08
5.28253e-05
2.86498e-08
5.28285e-05
2.78864e-08
5.28318e-05
2.72328e-08
5.2835e-05
2.61424e-08
5.28382e-05
2.51692e-08
2.39045e-08
5.28412e-05
5.70185e-05
2.39803e-09
5.70186e-05
4.24632e-09
5.70187e-05
8.31729e-09
5.70192e-05
1.01709e-08
5.70202e-05
1.33712e-08
5.70215e-05
1.59826e-08
5.70232e-05
1.83486e-08
5.70254e-05
2.0332e-08
5.70279e-05
2.23183e-08
5.70308e-05
2.3523e-08
5.7034e-05
2.46879e-08
5.70373e-05
2.50104e-08
5.70408e-05
2.54775e-08
5.70444e-05
2.51863e-08
5.7048e-05
2.50373e-08
5.70516e-05
2.42946e-08
5.70552e-05
2.36984e-08
5.70586e-05
2.27051e-08
5.70619e-05
2.18389e-08
2.07068e-08
5.70651e-05
6.15711e-05
2.22947e-09
6.15714e-05
3.97202e-09
6.15721e-05
7.61965e-09
6.1573e-05
9.23309e-09
6.15747e-05
1.17085e-08
6.15766e-05
1.40678e-08
6.1579e-05
1.59696e-08
6.15817e-05
1.75648e-08
6.15848e-05
1.92139e-08
6.15883e-05
2.0088e-08
6.15919e-05
2.10454e-08
6.15957e-05
2.11951e-08
6.15997e-05
2.15526e-08
6.16036e-05
2.12354e-08
6.16076e-05
2.10695e-08
6.16115e-05
2.04042e-08
6.16153e-05
1.98611e-08
6.1619e-05
1.90151e-08
6.16225e-05
1.82791e-08
1.73809e-08
6.16259e-05
6.64872e-05
1.87502e-09
6.64879e-05
3.26547e-09
6.64892e-05
6.26473e-09
6.64906e-05
7.80716e-09
6.64927e-05
9.65968e-09
6.64952e-05
1.15743e-08
6.64981e-05
1.30494e-08
6.65015e-05
1.41672e-08
6.65052e-05
1.55047e-08
6.65092e-05
1.60991e-08
6.65134e-05
1.68564e-08
6.65177e-05
1.69267e-08
6.6522e-05
1.71783e-08
6.65264e-05
1.69151e-08
6.65307e-05
1.6744e-08
6.65349e-05
1.62224e-08
6.6539e-05
1.57565e-08
6.65429e-05
1.509e-08
6.65467e-05
1.44599e-08
1.37171e-08
6.65504e-05
7.17956e-05
1.4682e-09
7.17965e-05
2.31397e-09
7.17982e-05
4.56523e-09
7.18003e-05
5.74372e-09
7.18029e-05
7.05467e-09
7.18061e-05
8.37363e-09
7.18096e-05
9.52586e-09
7.18136e-05
1.02085e-08
7.18179e-05
1.1207e-08
7.18224e-05
1.16097e-08
7.18271e-05
1.21418e-08
7.18318e-05
1.21961e-08
7.18366e-05
1.23558e-08
7.18414e-05
1.21841e-08
7.18461e-05
1.20423e-08
7.18506e-05
1.16859e-08
7.1855e-05
1.13422e-08
7.18592e-05
1.08821e-08
7.18632e-05
1.04308e-08
9.92386e-09
7.1867e-05
7.7528e-05
7.75293e-05
7.75314e-05
7.75341e-05
7.75373e-05
7.75411e-05
7.75454e-05
7.75499e-05
7.75549e-05
7.756e-05
7.75654e-05
7.75707e-05
7.7576e-05
7.75813e-05
7.75865e-05
7.75915e-05
7.75963e-05
7.76009e-05
7.76053e-05
7.76095e-05
3.77645e-06
6.64644e-08
3.68199e-06
9.44599e-08
3.58142e-06
1.00571e-07
3.48265e-06
9.87685e-08
3.38444e-06
9.82161e-08
3.28513e-06
9.93099e-08
3.18393e-06
1.01195e-07
3.08074e-06
1.03191e-07
2.97569e-06
1.05052e-07
2.86888e-06
1.06804e-07
2.76035e-06
1.08538e-07
2.64997e-06
1.10375e-07
2.53772e-06
1.12252e-07
2.42366e-06
1.14055e-07
2.30788e-06
1.15779e-07
2.19048e-06
1.17404e-07
2.07148e-06
1.18998e-07
1.95115e-06
1.20337e-07
1.82986e-06
1.21286e-07
1.70813e-06
1.21734e-07
1.58681e-06
1.21313e-07
1.46737e-06
1.19447e-07
1.35195e-06
1.15417e-07
1.2429e-06
1.09049e-07
1.14336e-06
9.95438e-08
1.05698e-06
8.63821e-08
9.86928e-07
7.00475e-08
9.34425e-07
5.25032e-08
8.97532e-07
3.68923e-08
8.72189e-07
2.53436e-08
8.54429e-07
1.77602e-08
8.41408e-07
1.30204e-08
8.31068e-07
1.03401e-08
8.22111e-07
8.95678e-09
8.13734e-07
8.37772e-09
8.0531e-07
8.42355e-09
7.96504e-07
8.80616e-09
7.87177e-07
9.32661e-09
7.77318e-07
9.85941e-09
7.67007e-07
1.03114e-08
7.56356e-07
1.0651e-08
7.4548e-07
1.08757e-08
7.34452e-07
1.1028e-08
7.23391e-07
1.10605e-08
7.12355e-07
1.10358e-08
7.01428e-07
1.09273e-08
6.90637e-07
1.07914e-08
6.80077e-07
1.05592e-08
6.69707e-07
1.03708e-08
6.59553e-07
1.01533e-08
6.49609e-07
9.94474e-09
6.39911e-07
9.69761e-09
6.30451e-07
9.46026e-09
6.21219e-07
9.23161e-09
6.1223e-07
8.98944e-09
6.03472e-07
8.75767e-09
5.94955e-07
8.51711e-09
5.86642e-07
8.31345e-09
5.78547e-07
8.09403e-09
5.70677e-07
7.87042e-09
5.63004e-07
7.67315e-09
5.55564e-07
7.44021e-09
5.48282e-07
7.28192e-09
5.41246e-07
7.03581e-09
5.34344e-07
6.90149e-09
5.27679e-07
6.66535e-09
5.21108e-07
6.57095e-09
5.14721e-07
6.38668e-09
5.08439e-07
6.28278e-09
5.02286e-07
6.15257e-09
4.96249e-07
6.03674e-09
4.90332e-07
5.91753e-09
4.84576e-07
5.7558e-09
4.78947e-07
5.62939e-09
4.73434e-07
5.51252e-09
4.68027e-07
5.4067e-09
4.62651e-07
5.37597e-09
4.57402e-07
5.24982e-09
4.52175e-07
5.22696e-09
4.47125e-07
5.04945e-09
4.42128e-07
4.99724e-09
4.37304e-07
4.82442e-09
4.32504e-07
4.79925e-09
4.27823e-07
4.68155e-09
4.23144e-07
4.67833e-09
4.18623e-07
4.52145e-09
4.14134e-07
4.48864e-09
4.09821e-07
4.31337e-09
4.0553e-07
4.29135e-09
4.01391e-07
4.13856e-09
3.97267e-07
4.12395e-09
3.93319e-07
3.9486e-09
3.89364e-07
3.95409e-09
3.85613e-07
3.7512e-09
3.81824e-07
3.78941e-09
3.78249e-07
3.57456e-09
3.74578e-07
3.67126e-09
3.71097e-07
3.48135e-09
3.67405e-07
3.69148e-09
4.14677e-09
4.16625e-06
6.09132e-08
4.16996e-06
9.07432e-08
4.16386e-06
1.06673e-07
4.15341e-06
1.09223e-07
4.1424e-06
1.09224e-07
4.13046e-06
1.11255e-07
4.11622e-06
1.15435e-07
4.09899e-06
1.2042e-07
4.07868e-06
1.2536e-07
4.05532e-06
1.30164e-07
4.02888e-06
1.34983e-07
3.99917e-06
1.40076e-07
3.96601e-06
1.45415e-07
3.92924e-06
1.5083e-07
3.88869e-06
1.56326e-07
3.84426e-06
1.61838e-07
3.79576e-06
1.67488e-07
3.74308e-06
1.73019e-07
3.68621e-06
1.7816e-07
3.62514e-06
1.82798e-07
3.56003e-06
1.86423e-07
3.49131e-06
1.88167e-07
3.41992e-06
1.86816e-07
3.34688e-06
1.82085e-07
3.27346e-06
1.72959e-07
3.20152e-06
1.58328e-07
3.13319e-06
1.38378e-07
3.07003e-06
1.15656e-07
3.01295e-06
9.3977e-08
2.96154e-06
7.67556e-08
2.91424e-06
6.5059e-08
2.86964e-06
5.76218e-08
2.82683e-06
5.31514e-08
2.78512e-06
5.06586e-08
2.74433e-06
4.91745e-08
2.70418e-06
4.85734e-08
2.66445e-06
4.85378e-08
2.62499e-06
4.87804e-08
2.58576e-06
4.90942e-08
2.5468e-06
4.92742e-08
2.50813e-06
4.9321e-08
2.46981e-06
4.91917e-08
2.4319e-06
4.89387e-08
2.39447e-06
4.84851e-08
2.35754e-06
4.79739e-08
2.32119e-06
4.72767e-08
2.28547e-06
4.65034e-08
2.2505e-06
4.55375e-08
2.2162e-06
4.46664e-08
2.18265e-06
4.37034e-08
2.14983e-06
4.27681e-08
2.1178e-06
4.17248e-08
2.08652e-06
4.07394e-08
2.05604e-06
3.97163e-08
2.02632e-06
3.87039e-08
1.9974e-06
3.76743e-08
1.96924e-06
3.66867e-08
1.94183e-06
3.57223e-08
1.91513e-06
3.47886e-08
1.88917e-06
3.38281e-08
1.86387e-06
3.29807e-08
1.83926e-06
3.20473e-08
1.81524e-06
3.13052e-08
1.7919e-06
3.0375e-08
1.76908e-06
2.97197e-08
1.74691e-06
2.88392e-08
1.72517e-06
2.83016e-08
1.70402e-06
2.75427e-08
1.68324e-06
2.70661e-08
1.66293e-06
2.64624e-08
1.64295e-06
2.60125e-08
1.62344e-06
2.54292e-08
1.60429e-06
2.4899e-08
1.58562e-06
2.43018e-08
1.56726e-06
2.38755e-08
1.54931e-06
2.33602e-08
1.53153e-06
2.31471e-08
1.51415e-06
2.26304e-08
1.49692e-06
2.24612e-08
1.48016e-06
2.18079e-08
1.46359e-06
2.15692e-08
1.44752e-06
2.08947e-08
1.43156e-06
2.07622e-08
1.41602e-06
2.02133e-08
1.40053e-06
2.0171e-08
1.38554e-06
1.95099e-08
1.37062e-06
1.94104e-08
1.35627e-06
1.86633e-08
1.34194e-06
1.86225e-08
1.32819e-06
1.789e-08
1.31441e-06
1.79069e-08
1.30127e-06
1.708e-08
1.28807e-06
1.71639e-08
1.27559e-06
1.62223e-08
1.26294e-06
1.6447e-08
1.2511e-06
1.54084e-08
1.23896e-06
1.58171e-08
1.22766e-06
1.4779e-08
1.21592e-06
1.54299e-08
1.61986e-08
4.49849e-06
6.25062e-08
4.50362e-06
8.56137e-08
4.50713e-06
1.03165e-07
4.5065e-06
1.09853e-07
4.50482e-06
1.10906e-07
4.50409e-06
1.11976e-07
4.50407e-06
1.15463e-07
4.50389e-06
1.20591e-07
4.50309e-06
1.26169e-07
4.50152e-06
1.31734e-07
4.49919e-06
1.37309e-07
4.49603e-06
1.43235e-07
4.4919e-06
1.49549e-07
4.48663e-06
1.56093e-07
4.48009e-06
1.62865e-07
4.47215e-06
1.69783e-07
4.46269e-06
1.76948e-07
4.45151e-06
1.84196e-07
4.43854e-06
1.91135e-07
4.42365e-06
1.97686e-07
4.40675e-06
2.03322e-07
4.38782e-06
2.07093e-07
4.3668e-06
2.07837e-07
4.34398e-06
2.04902e-07
4.31935e-06
1.97596e-07
4.29319e-06
1.84488e-07
4.26597e-06
1.65594e-07
4.23848e-06
1.43144e-07
4.21167e-06
1.20794e-07
4.18616e-06
1.02259e-07
4.16168e-06
8.95476e-08
4.13758e-06
8.17131e-08
4.11341e-06
7.73214e-08
4.08896e-06
7.51113e-08
4.06405e-06
7.40819e-08
4.03871e-06
7.39186e-08
4.01284e-06
7.44098e-08
3.98638e-06
7.52398e-08
3.95925e-06
7.6218e-08
3.9315e-06
7.70311e-08
3.90309e-06
7.77252e-08
3.87408e-06
7.82087e-08
3.84444e-06
7.85712e-08
3.81427e-06
7.86542e-08
3.78355e-06
7.86969e-08
3.75236e-06
7.84726e-08
3.72072e-06
7.81406e-08
3.68875e-06
7.7505e-08
3.65642e-06
7.70017e-08
3.62382e-06
7.62949e-08
3.59095e-06
7.56368e-08
3.55794e-06
7.47408e-08
3.52472e-06
7.39535e-08
3.49144e-06
7.30003e-08
3.45805e-06
7.2095e-08
3.42469e-06
7.10292e-08
3.3913e-06
7.00822e-08
3.358e-06
6.90232e-08
3.32473e-06
6.80536e-08
3.29163e-06
6.69313e-08
3.2586e-06
6.60078e-08
3.22579e-06
6.48582e-08
3.19309e-06
6.40106e-08
3.16067e-06
6.27907e-08
3.12841e-06
6.19809e-08
3.09649e-06
6.07627e-08
3.06471e-06
6.00761e-08
3.03332e-06
5.89391e-08
3.00206e-06
5.83204e-08
2.97118e-06
5.73397e-08
2.94045e-06
5.67457e-08
2.91017e-06
5.57133e-08
2.88009e-06
5.49763e-08
2.85052e-06
5.38715e-08
2.82115e-06
5.32454e-08
2.79226e-06
5.22468e-08
2.7635e-06
5.19149e-08
2.73522e-06
5.09038e-08
2.70704e-06
5.0645e-08
2.67946e-06
4.93902e-08
2.65201e-06
4.9015e-08
2.62524e-06
4.76681e-08
2.59851e-06
4.74859e-08
2.57244e-06
4.62871e-08
2.54632e-06
4.62874e-08
2.52096e-06
4.48732e-08
2.49557e-06
4.47987e-08
2.47104e-06
4.31944e-08
2.44641e-06
4.32525e-08
2.42271e-06
4.15928e-08
2.39883e-06
4.17806e-08
2.37599e-06
3.9928e-08
2.35291e-06
4.02386e-08
2.33102e-06
3.81142e-08
2.30875e-06
3.8713e-08
2.28777e-06
3.63885e-08
2.26635e-06
3.72444e-08
2.2462e-06
3.49221e-08
2.22557e-06
3.60616e-08
3.65335e-08
4.85891e-06
6.50602e-08
4.86256e-06
8.19623e-08
4.86715e-06
9.85694e-08
4.86856e-06
1.08447e-07
4.86781e-06
1.11652e-07
4.86747e-06
1.12315e-07
4.86801e-06
1.14924e-07
4.8693e-06
1.19304e-07
4.87075e-06
1.24715e-07
4.87206e-06
1.30426e-07
4.87321e-06
1.36162e-07
4.87426e-06
1.42181e-07
4.87521e-06
1.48598e-07
4.87603e-06
1.55277e-07
4.87668e-06
1.62217e-07
4.87715e-06
1.69314e-07
4.87744e-06
1.76651e-07
4.87751e-06
1.84127e-07
4.87735e-06
1.91298e-07
4.87699e-06
1.98049e-07
4.87637e-06
2.03942e-07
4.87545e-06
2.08016e-07
4.87398e-06
2.09307e-07
4.87184e-06
2.07036e-07
4.86879e-06
2.00652e-07
4.86441e-06
1.88866e-07
4.85836e-06
1.7164e-07
4.85085e-06
1.5066e-07
4.84241e-06
1.29229e-07
4.83387e-06
1.10798e-07
4.82555e-06
9.78735e-08
4.81727e-06
8.99871e-08
4.80878e-06
8.58119e-08
4.80003e-06
8.38642e-08
4.79083e-06
8.32809e-08
4.78132e-06
8.34318e-08
4.77147e-06
8.42587e-08
4.76128e-06
8.54284e-08
4.75064e-06
8.68613e-08
4.73955e-06
8.81159e-08
4.72794e-06
8.93379e-08
4.71581e-06
9.03366e-08
4.70308e-06
9.12962e-08
4.6898e-06
9.19382e-08
4.67589e-06
9.26113e-08
4.66138e-06
9.2975e-08
4.64624e-06
9.32839e-08
4.63053e-06
9.3212e-08
4.61417e-06
9.3365e-08
4.59725e-06
9.32119e-08
4.57968e-06
9.32082e-08
4.56159e-06
9.28286e-08
4.54286e-06
9.26921e-08
4.52363e-06
9.22245e-08
4.50377e-06
9.19552e-08
4.48347e-06
9.13303e-08
4.46255e-06
9.10014e-08
4.44121e-06
9.03649e-08
4.41929e-06
8.99689e-08
4.39699e-06
8.92371e-08
4.37414e-06
8.88542e-08
4.35092e-06
8.80771e-08
4.32719e-06
8.77459e-08
4.30311e-06
8.68707e-08
4.27854e-06
8.65486e-08
4.25367e-06
8.56279e-08
4.2283e-06
8.54522e-08
4.20269e-06
8.45453e-08
4.17655e-06
8.44594e-08
4.15024e-06
8.365e-08
4.12339e-06
8.36024e-08
4.09646e-06
8.26435e-08
4.06903e-06
8.23996e-08
4.0416e-06
8.13009e-08
4.01372e-06
8.11259e-08
3.98584e-06
8.01262e-08
3.95751e-06
8.02489e-08
3.92922e-06
7.91921e-08
3.90049e-06
7.93716e-08
3.87195e-06
7.79333e-08
3.84301e-06
7.79561e-08
3.81438e-06
7.62959e-08
3.7853e-06
7.65678e-08
3.75657e-06
7.50193e-08
3.72734e-06
7.55189e-08
3.69859e-06
7.36242e-08
3.66937e-06
7.40164e-08
3.64079e-06
7.17747e-08
3.6117e-06
7.23425e-08
3.58336e-06
6.99341e-08
3.55449e-06
7.06457e-08
3.52651e-06
6.79055e-08
3.49799e-06
6.87634e-08
3.47054e-06
6.55663e-08
3.44248e-06
6.67718e-08
3.41557e-06
6.32958e-08
3.38806e-06
6.47516e-08
3.36171e-06
6.12782e-08
3.3348e-06
6.2968e-08
6.28923e-08
5.2487e-06
6.59541e-08
5.25105e-06
7.96143e-08
5.25532e-06
9.42986e-08
5.2578e-06
1.05968e-07
5.25816e-06
1.11292e-07
5.25778e-06
1.12688e-07
5.25797e-06
1.14741e-07
5.25909e-06
1.18186e-07
5.26073e-06
1.23069e-07
5.26243e-06
1.28732e-07
5.26401e-06
1.34582e-07
5.26559e-06
1.40599e-07
5.26717e-06
1.47014e-07
5.26879e-06
1.53656e-07
5.27045e-06
1.6056e-07
5.27219e-06
1.67568e-07
5.27406e-06
1.74786e-07
5.27609e-06
1.82097e-07
5.27827e-06
1.89112e-07
5.28077e-06
1.95553e-07
5.28354e-06
2.01171e-07
5.28658e-06
2.0498e-07
5.28965e-06
2.06234e-07