/*--------------------------------*- C++ -*----------------------------------*\
| =========                 |                                                 |
| \\      /  F ield         | OpenFOAM: The Open Source CFD Toolbox           |
|  \\    /   O peration     | Version:  v2106                                 |
|   \\  /    A nd           | Website:  www.openfoam.com                      |
|    \\/     M anipulation  |                                                 |
\*---------------------------------------------------------------------------*/
FoamFile
{
    version     2.0;
    format      ascii;
    arch        "LSB;label=32;scalar=64";
    class       volVectorField;
    location    "1.8";
    object      U;
}
// * * * * * * * * * * * * * * * * * * * * * * * * * * * * * * * * * * * * * //

dimensions      [0 1 -1 0 0 0 0];

internalField   nonuniform List<vector> 
4800
(
(0.960707 0.000187463 0)
(1.03903 -0.000293959 0)
(0.964024 -7.27648e-05 0)
(1.03498 -0.000360057 0)
(0.967373 0.000258914 0)
(1.03194 -0.000305344 0)
(0.97093 2.14647e-05 0)
(1.02862 -0.000579613 0)
(0.973873 -2.77791e-05 0)
(1.02545 -0.000749258 0)
(0.976397 -9.86485e-05 0)
(1.02236 -0.000702584 0)
(0.978782 -6.68449e-05 0)
(1.01931 -0.000503471 0)
(0.980857 7.9451e-05 0)
(1.01636 -0.000306376 0)
(0.982586 0.000292586 0)
(1.0135 -0.000101363 0)
(0.983752 0.000663215 0)
(1.01053 0.000871964 0)
(0.982985 0.000117162 0)
(1.01474 -0.000251538 0)
(0.986747 -0.000101311 0)
(1.011 -0.000338067 0)
(0.989926 0.000225118 0)
(1.00856 -0.000312668 0)
(0.992849 -7.08104e-06 0)
(1.00623 -0.000615475 0)
(0.994813 -6.09758e-05 0)
(1.00433 -0.00079199 0)
(0.996083 -0.000121144 0)
(1.0027 -0.000762238 0)
(0.99703 -0.000101351 0)
(1.00124 -0.000562436 0)
(0.997554 6.85735e-05 0)
(0.999946 -0.000331694 0)
(0.997689 0.000402709 0)
(0.998726 0.000112599 0)
(0.997457 0.00133733 0)
(0.997474 0.00188415 0)
(0.996055 0.000189529 0)
(1.00288 -0.000306771 0)
(0.997497 -1.89992e-05 0)
(1.00151 -0.000375398 0)
(0.998418 0.000240246 0)
(1.0012 -0.000320822 0)
(0.999332 2.11322e-05 0)
(1.00077 -0.000509281 0)
(0.99969 -0.00012088 0)
(1.00044 -0.000590146 0)
(0.999676 -0.000255189 0)
(1.00005 -0.000487439 0)
(0.999571 -0.000278976 0)
(0.99958 -0.000303779 0)
(0.999255 -0.000168962 0)
(0.999058 -1.09302e-05 0)
(0.998772 0.000250269 0)
(0.998492 0.000701075 0)
(0.998155 0.00148931 0)
(0.997818 0.00240183 0)
(0.999492 0.000172155 0)
(1.00044 -0.000314952 0)
(0.999884 -6.15553e-05 0)
(1.00006 -0.000369076 0)
(1.00002 0.00019785 0)
(1.00037 -0.000307891 0)
(1.00037 -7.55514e-05 0)
(1.00039 -0.000479148 0)
(1.0004 -0.000216286 0)
(1.00032 -0.000556724 0)
(1.00019 -0.00034095 0)
(1.00009 -0.000497926 0)
(0.999956 -0.000376508 0)
(0.999721 -0.000323251 0)
(0.999577 -0.000224246 0)
(0.999278 3.80725e-05 0)
(0.999093 0.000317628 0)
(0.998815 0.000873484 0)
(0.99856 0.00166629 0)
(0.998262 0.00272074 0)
(1.00009 0.000170804 0)
(1.00009 -0.000294001 0)
(1.00029 -6.29359e-05 0)
(0.999921 -0.000310745 0)
(1.00032 0.000119598 0)
(1.00032 -0.000218598 0)
(1.00059 -0.000157503 0)
(1.00039 -0.000361027 0)
(1.00057 -0.000310617 0)
(1.00036 -0.000463221 0)
(1.00035 -0.000421322 0)
(1.00015 -0.000441258 0)
(1.00012 -0.000447134 0)
(0.999803 -0.000268225 0)
(0.999751 -0.000235239 0)
(0.999406 9.67824e-05 0)
(0.99932 0.000459556 0)
(0.999049 0.0011439 0)
(0.998931 0.00205517 0)
(0.998586 0.00301481 0)
(1.00027 0.000154233 0)
(0.99995 -0.000266867 0)
(1.00043 -0.000134294 0)
(0.999836 -0.00025627 0)
(1.00046 3.3229e-05 0)
(1.00024 -0.000167012 0)
(1.0007 -0.000233963 0)
(1.00032 -0.000349187 0)
(1.00068 -0.000366633 0)
(1.0003 -0.000475738 0)
(1.00045 -0.000477728 0)
(1.00011 -0.000431407 0)
(1.00023 -0.000477302 0)
(0.999797 -0.000240626 0)
(0.999873 -0.00022618 0)
(0.99947 0.000193878 0)
(0.999532 0.000794759 0)
(0.999247 0.00159996 0)
(0.999223 0.00239782 0)
(0.998797 0.00315452 0)
(1.00037 0.000151822 0)
(0.999859 -0.000247642 0)
(1.00052 -0.000181427 0)
(0.999774 -0.000210116 0)
(1.00054 -2.82201e-05 0)
(1.00017 -0.000166061 0)
(1.00076 -0.000250887 0)
(1.00027 -0.000382876 0)
(1.00074 -0.000381609 0)
(1.00025 -0.000502624 0)
(1.00052 -0.000458861 0)
(1.00007 -0.000464701 0)
(1.0003 -0.000419589 0)
(0.999791 -0.000271479 0)
(0.999969 -3.56714e-05 0)
(0.999577 0.000511933 0)
(0.999755 0.00127745 0)
(0.999406 0.00189837 0)
(0.999445 0.00252299 0)
(0.998969 0.00314277 0)
(1.00037 0.000120024 0)
(0.999856 -0.000181965 0)
(1.00053 -0.000262537 0)
(0.999793 -0.000173588 0)
(1.00054 -7.97189e-05 0)
(1.00017 -0.000157836 0)
(1.00076 -0.000301361 0)
(1.00027 -0.000385098 0)
(1.00073 -0.000430717 0)
(1.00026 -0.000491549 0)
(1.00052 -0.000492894 0)
(1.00009 -0.000434175 0)
(1.00032 -0.000398709 0)
(0.999853 -0.000125063 0)
(1.00009 0.000331205 0)
(0.999748 0.000956537 0)
(0.999903 0.00152081 0)
(0.999561 0.00199057 0)
(0.99961 0.00251252 0)
(0.999164 0.0030818 0)
(1.00028 0.000120027 0)
(0.999938 -0.000178542 0)
(1.00045 -0.000271457 0)
(0.999889 -0.00022946 0)
(1.00048 -8.3469e-05 0)
(1.00023 -0.000203035 0)
(1.00068 -0.000317371 0)
(1.00033 -0.000440929 0)
(1.00068 -0.000428309 0)
(1.00032 -0.000520964 0)
(1.00049 -0.000467151 0)
(1.00016 -0.000436414 0)
(1.00032 -0.000248822 0)
(1 0.000244484 0)
(1.00018 0.000736541 0)
(0.999911 0.0011489 0)
(0.999991 0.00157194 0)
(0.999734 0.00199169 0)
(0.999754 0.00248086 0)
(0.99939 0.00303017 0)
(1.00016 0.00010115 0)
(1.00004 -0.000141362 0)
(1.00035 -0.000281791 0)
(1.00001 -0.000255685 0)
(1.00039 -0.000158731 0)
(1.00032 -0.000222062 0)
(1.0006 -0.000373145 0)
(1.00041 -0.000437617 0)
(1.00061 -0.000476506 0)
(1.00039 -0.00048247 0)
(1.00044 -0.000478476 0)
(1.00025 -0.000269848 0)
(1.00037 0.000103416 0)
(1.00017 0.000573914 0)
(1.00022 0.000902239 0)
(1.00005 0.00119962 0)
(1.00007 0.00158943 0)
(0.999917 0.00201495 0)
(0.9999 0.00249237 0)
(0.999628 0.00302085 0)
(1.00008 7.75109e-05 0)
(1.00011 -0.000101208 0)
(1.00027 -0.000294202 0)
(1.00009 -0.000268179 0)
(1.00034 -0.000238986 0)
(1.00038 -0.000296685 0)
(1.00053 -0.000398243 0)
(1.00047 -0.000459608 0)
(1.00056 -0.000460715 0)
(1.00045 -0.000458843 0)
(1.00043 -0.000308963 0)
(1.00039 9.38468e-05 0)
(1.00042 0.000396835 0)
(1.00028 0.000669825 0)
(1.00026 0.000927152 0)
(1.00018 0.00121828 0)
(1.00018 0.00162022 0)
(1.0001 0.00205765 0)
(1.00007 0.00252928 0)
(0.999862 0.00302955 0)
(1.00003 8.10442e-05 0)
(1.00014 -8.78264e-05 0)
(1.00023 -0.000301592 0)
(1.00014 -0.00030276 0)
(1.0003 -0.000325125 0)
(1.00041 -0.000403547 0)
(1.0005 -0.000452581 0)
(1.0005 -0.000456159 0)
(1.00055 -0.000413531 0)
(1.0005 -0.000326404 0)
(1.0005 3.36031e-05 0)
(1.00047 0.000295961 0)
(1.00046 0.000459895 0)
(1.00037 0.000678812 0)
(1.00033 0.00095927 0)
(1.00031 0.00126993 0)
(1.00031 0.00167733 0)
(1.00028 0.00211732 0)
(1.00025 0.00257345 0)
(1.00008 0.00303857 0)
(1.00002 3.52239e-05 0)
(1.00014 -1.62401e-05 0)
(1.00021 -0.000320679 0)
(1.00015 -0.000295737 0)
(1.00029 -0.000422297 0)
(1.00042 -0.000479426 0)
(1.0005 -0.000526213 0)
(1.00052 -0.000406498 0)
(1.00057 -0.000229916 0)
(1.00058 1.90363e-05 0)
(1.00054 0.000212581 0)
(1.00052 0.000344135 0)
(1.0005 0.000490523 0)
(1.00045 0.000724504 0)
(1.00042 0.00102735 0)
(1.00044 0.00135359 0)
(1.00046 0.00175178 0)
(1.00046 0.00217921 0)
(1.00044 0.00261374 0)
(1.0003 0.00304125 0)
(1.00001 5.17466e-05 0)
(1.00013 -8.90858e-05 0)
(1.00019 -0.000253322 0)
(1.00015 -0.000387098 0)
(1.00027 -0.000417319 0)
(1.00042 -0.00058193 0)
(1.00052 -0.000466375 0)
(1.00058 -0.000294761 0)
(1.00063 -5.6029e-06 0)
(1.00061 0.000131101 0)
(1.00057 0.000236769 0)
(1.00056 0.000376038 0)
(1.00056 0.000549482 0)
(1.00054 0.000795444 0)
(1.00053 0.00111312 0)
(1.00058 0.00144398 0)
(1.00062 0.00182336 0)
(1.00065 0.00222909 0)
(1.00063 0.00263728 0)
(1.0005 0.00303042 0)
(1.00001 2.07066e-05 0)
(1.00013 -0.000118904 0)
(1.00018 -0.000274629 0)
(1.00015 -0.000409239 0)
(1.00027 -0.000415805 0)
(1.00043 -0.000501422 0)
(1.00057 -0.00034517 0)
(1.00063 -0.000135426 0)
(1.00067 6.76857e-06 0)
(1.00065 0.000114618 0)
(1.00062 0.000263657 0)
(1.00062 0.000431795 0)
(1.00063 0.00062811 0)
(1.00064 0.000871509 0)
(1.00065 0.00118586 0)
(1.00072 0.00150956 0)
(1.00079 0.0018691 0)
(1.00083 0.00224807 0)
(1.00083 0.0026304 0)
(1.00071 0.00299544 0)
(1.00001 1.06564e-05 0)
(1.00011 -0.000146886 0)
(1.00017 -0.00035573 0)
(1.00016 -0.000386488 0)
(1.00029 -0.000414681 0)
(1.00046 -0.000356626 0)
(1.00061 -0.000197755 0)
(1.00068 -9.12625e-05 0)
(1.00071 4.85993e-05 0)
(1.0007 0.000170996 0)
(1.00067 0.000333926 0)
(1.00069 0.000512105 0)
(1.00072 0.00072287 0)
(1.00075 0.00096296 0)
(1.00079 0.00126675 0)
(1.00087 0.00158052 0)
(1.00096 0.00192046 0)
(1.00102 0.00227412 0)
(1.00103 0.00263312 0)
(1.00092 0.00297292 0)
(1.00001 -7.78736e-06 0)
(1.0001 -0.000198971 0)
(1.00017 -0.000399221 0)
(1.00017 -0.000388955 0)
(1.00031 -0.000348587 0)
(1.00051 -0.000235665 0)
(1.00066 -0.000111005 0)
(1.00072 -1.75956e-05 0)
(1.00076 0.000103123 0)
(1.00076 0.000222104 0)
(1.00074 0.000390583 0)
(1.00077 0.000576532 0)
(1.00081 0.000800045 0)
(1.00086 0.00104063 0)
(1.00093 0.00133307 0)
(1.00103 0.00163476 0)
(1.00114 0.00195683 0)
(1.00122 0.00228739 0)
(1.00124 0.00262411 0)
(1.00114 0.00294027 0)
(1.00001 -1.79041e-05 0)
(1.00009 -0.000230293 0)
(1.00018 -0.000426018 0)
(1.00021 -0.000393737 0)
(1.00036 -0.000225576 0)
(1.00055 -0.000132951 0)
(1.0007 -4.55659e-05 0)
(1.00077 3.33729e-05 0)
(1.00082 0.000148715 0)
(1.00082 0.000268134 0)
(1.00082 0.000441845 0)
(1.00086 0.000629517 0)
(1.00092 0.000855915 0)
(1.00099 0.00109328 0)
(1.00107 0.00137474 0)
(1.00119 0.00166467 0)
(1.00133 0.00197173 0)
(1.00143 0.00228146 0)
(1.00146 0.00259628 0)
(1.00136 0.00289146 0)
(1.00001 -2.86959e-05 0)
(1.00008 -0.000245103 0)
(1.00019 -0.000412065 0)
(1.00026 -0.000368205 0)
(1.00042 -0.000169641 0)
(1.0006 -7.00208e-05 0)
(1.00075 1.04834e-05 0)
(1.00082 8.35833e-05 0)
(1.00088 0.000198142 0)
(1.00089 0.000320413 0)
(1.00091 0.00049928 0)
(1.00096 0.000687112 0)
(1.00104 0.000913344 0)
(1.00113 0.00114887 0)
(1.00123 0.00142289 0)
(1.00137 0.00170238 0)
(1.00152 0.00199471 0)
(1.00164 0.00228387 0)
(1.00168 0.00257636 0)
(1.00158 0.00285078 0)
(1.00001 -3.45594e-05 0)
(1.00008 -0.000233001 0)
(1.00021 -0.000369465 0)
(1.00031 -0.00032262 0)
(1.00048 -0.000152527 0)
(1.00066 -4.87684e-05 0)
(1.0008 5.24315e-05 0)
(1.00088 0.000136091 0)
(1.00095 0.000253951 0)
(1.00097 0.000377736 0)
(1.00101 0.000557606 0)
(1.00107 0.000743893 0)
(1.00117 0.000967888 0)
(1.00128 0.00120063 0)
(1.0014 0.0014677 0)
(1.00155 0.00173521 0)
(1.00172 0.00201072 0)
(1.00185 0.00227843 0)
(1.0019 0.00254826 0)
(1.00181 0.00280083 0)
(1.00001 -3.46869e-05 0)
(1.00008 -0.000211877 0)
(1.00023 -0.000318729 0)
(1.00037 -0.000277744 0)
(1.00054 -0.00013793 0)
(1.00072 -3.30496e-05 0)
(1.00086 8.5011e-05 0)
(1.00094 0.000183738 0)
(1.00102 0.000308116 0)
(1.00106 0.000432041 0)
(1.00111 0.000612449 0)
(1.00119 0.000798342 0)
(1.0013 0.00101931 0)
(1.00143 0.0012456 0)
(1.00157 0.00150205 0)
(1.00174 0.00175598 0)
(1.00192 0.00201447 0)
(1.00206 0.00226199 0)
(1.00213 0.00251052 0)
(1.00204 0.00274287 0)
(1.00001 -3.68501e-05 0)
(1.00008 -0.000173035 0)
(1.00025 -0.00026534 0)
(1.00041 -0.000243327 0)
(1.0006 -0.000118505 0)
(1.00078 -1.56654e-05 0)
(1.00093 0.000109569 0)
(1.00101 0.000221107 0)
(1.00109 0.000356813 0)
(1.00115 0.000484958 0)
(1.00122 0.000665622 0)
(1.00131 0.000849237 0)
(1.00144 0.00106435 0)
(1.00159 0.00128171 0)
(1.00175 0.00152567 0)
(1.00193 0.00176629 0)
(1.00212 0.00201014 0)
(1.00227 0.00223961 0)
(1.00235 0.00246787 0)
(1.00226 0.00268109 0)
(1.00001 -3.2574e-05 0)
(1.00008 -0.000141412 0)
(1.00027 -0.000216908 0)
(1.00046 -0.000205306 0)
(1.00066 -9.34181e-05 0)
(1.00084 7.6529e-06 0)
(1.001 0.000135167 0)
(1.00109 0.000255443 0)
(1.00117 0.000402693 0)
(1.00124 0.000535974 0)
(1.00133 0.000715832 0)
(1.00144 0.000895495 0)
(1.00158 0.00110418 0)
(1.00175 0.00131165 0)
(1.00193 0.00154336 0)
(1.00212 0.00176958 0)
(1.00232 0.00199856 0)
(1.00248 0.00221086 0)
(1.00256 0.00241924 0)
(1.00248 0.00261335 0)
(1.00001 -2.75183e-05 0)
(1.00008 -0.000115507 0)
(1.00029 -0.000169001 0)
(1.0005 -0.000164718 0)
(1.00072 -6.5902e-05 0)
(1.0009 3.44442e-05 0)
(1.00107 0.000163469 0)
(1.00116 0.0002872 0)
(1.00126 0.000443051 0)
(1.00134 0.000581648 0)
(1.00144 0.000760406 0)
(1.00156 0.000935644 0)
(1.00173 0.00113721 0)
(1.00191 0.00133363 0)
(1.00211 0.001552 0)
(1.00231 0.00176325 0)
(1.00252 0.00197632 0)
(1.00268 0.00217287 0)
(1.00277 0.00236341 0)
(1.0027 0.00253955 0)
(1.00002 -2.1377e-05 0)
(1.00008 -9.23441e-05 0)
(1.0003 -0.000126958 0)
(1.00053 -0.000122468 0)
(1.00077 -3.38585e-05 0)
(1.00096 6.55107e-05 0)
(1.00114 0.000194434 0)
(1.00125 0.000318039 0)
(1.00135 0.000477557 0)
(1.00144 0.000621365 0)
(1.00156 0.000798952 0)
(1.00169 0.00096935 0)
(1.00187 0.00116293 0)
(1.00207 0.00134834 0)
(1.00228 0.00155197 0)
(1.0025 0.00174814 0)
(1.00271 0.00194548 0)
(1.00288 0.00212631 0)
(1.00297 0.00230114 0)
(1.0029 0.00246038 0)
(1.00002 -1.45729e-05 0)
(1.00008 -7.22766e-05 0)
(1.00031 -8.83392e-05 0)
(1.00056 -7.98261e-05 0)
(1.00082 5.47795e-07 0)
(1.00103 9.77968e-05 0)
(1.00121 0.000226863 0)
(1.00133 0.000348429 0)
(1.00145 0.000507697 0)
(1.00155 0.000653705 0)
(1.00168 0.000830161 0)
(1.00183 0.000994994 0)
(1.00202 0.00118049 0)
(1.00223 0.00135495 0)
(1.00246 0.00154382 0)
(1.00268 0.00172372 0)
(1.0029 0.00190598 0)
(1.00308 0.00207083 0)
(1.00317 0.00223089 0)
(1.0031 0.00237471 0)
(1.00002 -8.03472e-06 0)
(1.00009 -5.33411e-05 0)
(1.00033 -5.30749e-05 0)
(1.00059 -3.93011e-05 0)
(1.00087 3.60563e-05 0)
(1.00109 0.000130649 0)
(1.00128 0.000260191 0)
(1.00141 0.000379104 0)
(1.00154 0.000534894 0)
(1.00166 0.0006785 0)
(1.0018 0.000851901 0)
(1.00196 0.00101056 0)
(1.00216 0.00118726 0)
(1.00238 0.00135058 0)
(1.00263 0.0015257 0)
(1.00286 0.00168948 0)
(1.00309 0.00185686 0)
(1.00327 0.00200704 0)
(1.00336 0.00215281 0)
(1.00329 0.00228273 0)
(1.00002 -1.23511e-06 0)
(1.00009 -3.48617e-05 0)
(1.00034 -2.24051e-05 0)
(1.00062 -1.42711e-06 0)
(1.00091 7.2253e-05 0)
(1.00115 0.000162787 0)
(1.00136 0.000290849 0)
(1.0015 0.000407322 0)
(1.00164 0.000558239 0)
(1.00176 0.000697526 0)
(1.00192 0.000864641 0)
(1.00209 0.00101664 0)
(1.00231 0.00118355 0)
(1.00254 0.0013355 0)
(1.00279 0.00149733 0)
(1.00303 0.00164617 0)
(1.00327 0.00179827 0)
(1.00345 0.0019346 0)
(1.00355 0.00206684 0)
(1.00348 0.00218347 0)
(1.00002 4.56408e-06 0)
(1.0001 -1.79216e-05 0)
(1.00036 5.96706e-06 0)
(1.00065 3.33594e-05 0)
(1.00096 0.000105442 0)
(1.00121 0.000192854 0)
(1.00143 0.000316565 0)
(1.00158 0.000430905 0)
(1.00174 0.000575721 0)
(1.00187 0.000709508 0)
(1.00204 0.000868437 0)
(1.00222 0.00101247 0)
(1.00245 0.00116972 0)
(1.00268 0.00131012 0)
(1.00295 0.00145898 0)
(1.0032 0.00159347 0)
(1.00344 0.00173106 0)
(1.00362 0.00185318 0)
(1.00372 0.00197325 0)
(1.00365 0.00207693 0)
(1.00002 1.00561e-05 0)
(1.0001 -2.39762e-06 0)
(1.00037 3.00952e-05 0)
(1.00068 6.3739e-05 0)
(1.001 0.000136417 0)
(1.00127 0.000218725 0)
(1.0015 0.000339251 0)
(1.00166 0.000449806 0)
(1.00183 0.000587463 0)
(1.00198 0.000713936 0)
(1.00216 0.000862698 0)
(1.00235 0.000997682 0)
(1.00259 0.00114435 0)
(1.00283 0.00127375 0)
(1.0031 0.00140988 0)
(1.00336 0.00153071 0)
(1.00361 0.00165499 0)
(1.00379 0.00176321 0)
(1.00389 0.00187179 0)
(1.00382 0.00196355 0)
(1.00002 1.436e-05 0)
(1.00011 1.20971e-05 0)
(1.00038 5.16195e-05 0)
(1.0007 8.8912e-05 0)
(1.00104 0.000163264 0)
(1.00133 0.000241742 0)
(1.00157 0.000355046 0)
(1.00174 0.000463391 0)
(1.00193 0.00059207 0)
(1.00209 0.000711228 0)
(1.00228 0.000848175 0)
(1.00248 0.000972585 0)
(1.00272 0.00110781 0)
(1.00297 0.00122581 0)
(1.00325 0.00135024 0)
(1.00351 0.00145784 0)
(1.00376 0.00157004 0)
(1.00394 0.00166527 0)
(1.00404 0.00176267 0)
(1.00397 0.00184359 0)
(1.00002 1.83084e-05 0)
(1.00011 2.37169e-05 0)
(1.0004 6.94792e-05 0)
(1.00073 0.000108775 0)
(1.00108 0.000185435 0)
(1.00138 0.000259113 0)
(1.00163 0.000364531 0)
(1.00182 0.000467037 0)
(1.00202 0.000588032 0)
(1.00219 0.000699053 0)
(1.00239 0.000825297 0)
(1.0026 0.00093806 0)
(1.00284 0.00106176 0)
(1.0031 0.0011676 0)
(1.00338 0.00128066 0)
(1.00364 0.00137542 0)
(1.0039 0.00147587 0)
(1.00409 0.00155889 0)
(1.00419 0.00164543 0)
(1.00411 0.00171593 0)
(1.00002 2.07753e-05 0)
(1.00012 3.43975e-05 0)
(1.00041 8.36002e-05 0)
(1.00075 0.000123937 0)
(1.00111 0.000199591 0)
(1.00143 0.00027144 0)
(1.0017 0.000367495 0)
(1.0019 0.000463834 0)
(1.0021 0.00057455 0)
(1.00228 0.000677225 0)
(1.0025 0.000791098 0)
(1.00271 0.000892709 0)
(1.00296 0.00100358 0)
(1.00322 0.00109801 0)
(1.00351 0.00119913 0)
(1.00377 0.00128257 0)
(1.00403 0.00137159 0)
(1.00422 0.00144388 0)
(1.00432 0.0015202 0)
(1.00425 0.00158126 0)
(1.00002 2.28494e-05 0)
(1.00012 4.10124e-05 0)
(1.00042 9.46036e-05 0)
(1.00077 0.000133576 0)
(1.00115 0.000206449 0)
(1.00147 0.0002755 0)
(1.00176 0.000361948 0)
(1.00197 0.000450702 0)
(1.00218 0.000551498 0)
(1.00237 0.000643992 0)
(1.00259 0.000746221 0)
(1.00281 0.000835385 0)
(1.00307 0.000934674 0)
(1.00333 0.00101656 0)
(1.00362 0.00110698 0)
(1.00389 0.00117857 0)
(1.00415 0.00125766 0)
(1.00434 0.0013192 0)
(1.00444 0.00138666 0)
(1.00436 0.00143844 0)
(1.00002 2.38969e-05 0)
(1.00013 4.57087e-05 0)
(1.00043 9.93243e-05 0)
(1.00079 0.000137393 0)
(1.00118 0.000205736 0)
(1.00151 0.000270688 0)
(1.00181 0.00034721 0)
(1.00204 0.000426297 0)
(1.00226 0.000516776 0)
(1.00245 0.000599301 0)
(1.00268 0.000689481 0)
(1.00291 0.000767612 0)
(1.00317 0.000854426 0)
(1.00343 0.000925643 0)
(1.00373 0.00100412 0)
(1.004 0.00106569 0)
(1.00425 0.00113381 0)
(1.00444 0.00118636 0)
(1.00454 0.00124421 0)
(1.00447 0.00128827 0)
(1.00002 2.36692e-05 0)
(1.00013 4.66175e-05 0)
(1.00044 0.000100292 0)
(1.00081 0.000134859 0)
(1.00121 0.000195793 0)
(1.00155 0.000256357 0)
(1.00186 0.000322597 0)
(1.0021 0.000392251 0)
(1.00232 0.000470244 0)
(1.00253 0.000542315 0)
(1.00276 0.000620279 0)
(1.00299 0.000686628 0)
(1.00326 0.000761842 0)
(1.00353 0.000821897 0)
(1.00382 0.000889898 0)
(1.00409 0.00094145 0)
(1.00435 0.00100017 0)
(1.00454 0.00104402 0)
(1.00464 0.00109372 0)
(1.00456 0.00113048 0)
(1.00001 2.36913e-05 0)
(1.00013 4.43555e-05 0)
(1.00045 9.57789e-05 0)
(1.00082 0.000126297 0)
(1.00123 0.000178359 0)
(1.00158 0.000231385 0)
(1.0019 0.000287637 0)
(1.00215 0.000345906 0)
(1.00238 0.000412705 0)
(1.00259 0.000471425 0)
(1.00283 0.000538556 0)
(1.00307 0.000591617 0)
(1.00333 0.000656001 0)
(1.00361 0.000704127 0)
(1.0039 0.000761821 0)
(1.00417 0.000803352 0)
(1.00443 0.000852586 0)
(1.00462 0.000888189 0)
(1.00472 0.000929501 0)
(1.00464 0.000959661 0)
(1.00001 2.00052e-05 0)
(1.00014 4.05164e-05 0)
(1.00045 8.27608e-05 0)
(1.00083 0.000111178 0)
(1.00126 0.000150281 0)
(1.00161 0.000197203 0)
(1.00193 0.000240706 0)
(1.00219 0.000286812 0)
(1.00243 0.000340798 0)
(1.00265 0.000385912 0)
(1.00288 0.000439389 0)
(1.00313 0.000480391 0)
(1.0034 0.000530683 0)
(1.00367 0.000568484 0)
(1.00397 0.000612643 0)
(1.00424 0.000645622 0)
(1.0045 0.000682703 0)
(1.00468 0.000711266 0)
(1.00479 0.00074209 0)
(1.0047 0.000766434 0)
(1.00001 1.77453e-05 0)
(1.00014 3.23433e-05 0)
(1.00046 6.91695e-05 0)
(1.00084 9.48009e-05 0)
(1.00127 0.000126957 0)
(1.00163 0.000164636 0)
(1.00195 0.000203681 0)
(1.00223 0.000237979 0)
(1.00247 0.000284421 0)
(1.00269 0.000320573 0)
(1.00293 0.000365386 0)
(1.00317 0.000399166 0)
(1.00345 0.000440597 0)
(1.00372 0.000472501 0)
(1.00402 0.000508697 0)
(1.00429 0.000536871 0)
(1.00455 0.000567298 0)
(1.00473 0.000591916 0)
(1.00484 0.000617432 0)
(1.00475 0.000638559 0)
(1.00001 9.18751e-06 0)
(1.00014 1.39066e-05 0)
(1.00047 3.19495e-05 0)
(1.00085 4.44513e-05 0)
(1.00129 5.96407e-05 0)
(1.00166 7.66936e-05 0)
(1.00198 9.60603e-05 0)
(1.00226 0.000111799 0)
(1.00251 0.000133928 0)
(1.00273 0.000151587 0)
(1.00298 0.000172817 0)
(1.00322 0.000189615 0)
(1.0035 0.000209137 0)
(1.00378 0.00022529 0)
(1.00407 0.000242505 0)
(1.00434 0.000256938 0)
(1.00461 0.000271601 0)
(1.00479 0.000284276 0)
(1.0049 0.000296772 0)
(1.00481 0.000307732 0)
(0.984627 0.0022109 0)
(0.960501 0.00341134 0)
(0.936132 0.00377567 0)
(0.911287 0.00372015 0)
(0.886019 0.00361033 0)
(0.860355 0.00356091 0)
(0.834333 0.00354929 0)
(0.80791 0.00353633 0)
(0.781075 0.0035073 0)
(0.753783 0.00346392 0)
(0.726063 0.00341406 0)
(0.697858 0.00336591 0)
(0.669153 0.00331766 0)
(0.639955 0.00326746 0)
(0.610311 0.00321324 0)
(0.580238 0.00315456 0)
(0.54975 0.00309636 0)
(0.518836 0.00302603 0)
(0.487656 0.00294199 0)
(0.456235 0.00284403 0)
(0.424794 0.00271797 0)
(0.393584 0.00254653 0)
(0.363099 0.00232605 0)
(0.333889 0.00204995 0)
(0.306662 0.00166123 0)
(0.282439 0.0011621 0)
(0.262204 0.000568631 0)
(0.246656 5.51663e-05 0)
(0.235593 -0.000288627 0)
(0.227974 -0.000454159 0)
(0.222584 -0.000508186 0)
(0.218685 -0.000484467 0)
(0.215683 -0.000448468 0)
(0.213193 -0.000399618 0)
(0.210968 -0.000343699 0)
(0.208814 -0.000286653 0)
(0.206593 -0.000234527 0)
(0.204256 -0.000189076 0)
(0.201782 -0.000150163 0)
(0.199181 -0.000117748 0)
(0.196477 -9.13712e-05 0)
(0.193698 -6.9675e-05 0)
(0.190872 -5.19062e-05 0)
(0.18802 -3.83142e-05 0)
(0.18517 -2.71752e-05 0)
(0.182334 -1.81408e-05 0)
(0.179534 -1.04772e-05 0)
(0.176778 -4.81143e-06 0)
(0.174079 6.54159e-07 0)
(0.17143 5.10986e-06 0)
(0.168839 9.10773e-06 0)
(0.166303 1.20979e-05 0)
(0.163836 1.46961e-05 0)
(0.16142 1.70664e-05 0)
(0.159077 1.87338e-05 0)
(0.156779 2.02345e-05 0)
(0.154563 2.11567e-05 0)
(0.152379 2.21858e-05 0)
(0.15028 2.24556e-05 0)
(0.148202 2.25286e-05 0)
(0.146219 2.24109e-05 0)
(0.144247 2.19227e-05 0)
(0.142373 2.17771e-05 0)
(0.140501 2.08003e-05 0)
(0.138731 2.06433e-05 0)
(0.136954 1.9602e-05 0)
(0.135278 1.95587e-05 0)
(0.133576 1.85874e-05 0)
(0.131977 1.80022e-05 0)
(0.130334 1.72922e-05 0)
(0.128806 1.65011e-05 0)
(0.127214 1.59739e-05 0)
(0.125766 1.48882e-05 0)
(0.124233 1.44414e-05 0)
(0.122871 1.36478e-05 0)
(0.121381 1.32298e-05 0)
(0.120081 1.28988e-05 0)
(0.118611 1.22157e-05 0)
(0.117367 1.20484e-05 0)
(0.115924 1.12213e-05 0)
(0.114757 1.09408e-05 0)
(0.11335 1.0195e-05 0)
(0.112264 9.9699e-06 0)
(0.110871 9.57734e-06 0)
(0.10985 9.4234e-06 0)
(0.108457 8.91819e-06 0)
(0.107522 8.63964e-06 0)
(0.106137 8.13579e-06 0)
(0.105304 7.85419e-06 0)
(0.10391 7.56675e-06 0)
(0.103184 7.29636e-06 0)
(0.101766 6.99157e-06 0)
(0.101165 6.78095e-06 0)
(0.0997072 6.42648e-06 0)
(0.0992503 6.31913e-06 0)
(0.0977261 6.04085e-06 0)
(0.0974344 6.02488e-06 0)
(0.0957905 6.19089e-06 0)
(0.0957005 6.48487e-06 0)
(0.093763 8.44086e-06 0)
(0.997081 0.00389432 0)
(0.996186 0.00577205 0)
(0.994887 0.00649614 0)
(0.993186 0.00647303 0)
(0.99105 0.00630635 0)
(0.988365 0.00625258 0)
(0.985141 0.00630564 0)
(0.981292 0.0063928 0)
(0.976823 0.00646907 0)
(0.971648 0.00652709 0)
(0.965779 0.00657533 0)
(0.959118 0.0066263 0)
(0.951647 0.00667911 0)
(0.943297 0.00672629 0)
(0.934086 0.00676694 0)
(0.923942 0.00679907 0)
(0.912867 0.00682777 0)
(0.900762 0.00684799 0)
(0.887679 0.00685226 0)
(0.873548 0.00683817 0)
(0.858424 0.00679062 0)
(0.842337 0.00668494 0)
(0.825459 0.00650287 0)
(0.80802 0.00622282 0)
(0.79029 0.00578779 0)
(0.772779 0.00517542 0)
(0.75601 0.00438902 0)
(0.740525 0.0035451 0)
(0.726509 0.00276063 0)
(0.71381 0.0021378 0)
(0.702053 0.00169773 0)
(0.690997 0.00140105 0)
(0.680456 0.00119564 0)
(0.670276 0.00104454 0)
(0.660389 0.000939636 0)
(0.650699 0.000873861 0)
(0.641161 0.000833041 0)
(0.631695 0.000805833 0)
(0.622313 0.000784211 0)
(0.612969 0.000763184 0)
(0.603721 0.000741335 0)
(0.594513 0.000717508 0)
(0.585428 0.000693389 0)
(0.576418 0.000667268 0)
(0.567556 0.000641034 0)
(0.558782 0.000612846 0)
(0.550193 0.000585102 0)
(0.541733 0.000555508 0)
(0.533473 0.000529206 0)
(0.525352 0.000502976 0)
(0.517442 0.000478346 0)
(0.509676 0.000453623 0)
(0.50214 0.000430653 0)
(0.49473 0.000408739 0)
(0.487579 0.000387712 0)
(0.480531 0.00036796 0)
(0.473768 0.000349147 0)
(0.467066 0.000332245 0)
(0.46068 0.000315981 0)
(0.454312 0.000300415 0)
(0.44828 0.000286516 0)
(0.442224 0.000272187 0)
(0.436517 0.000260644 0)
(0.430758 0.000247207 0)
(0.425355 0.000237454 0)
(0.41987 0.000225301 0)
(0.414744 0.000217602 0)
(0.409501 0.000207837 0)
(0.404629 0.000201012 0)
(0.399573 0.00019333 0)
(0.394929 0.000186575 0)
(0.390025 0.000179399 0)
(0.385621 0.000171858 0)
(0.380865 0.000164999 0)
(0.37671 0.000159059 0)
(0.37208 0.000153301 0)
(0.368136 0.000149726 0)
(0.36359 0.000143827 0)
(0.359832 0.00014044 0)
(0.355362 0.00013344 0)
(0.351824 0.000129693 0)
(0.347444 0.000123204 0)
(0.344146 0.000120464 0)
(0.339809 0.000115385 0)
(0.336734 0.000113195 0)
(0.332401 0.000107432 0)
(0.329587 0.000104811 0)
(0.325256 9.89283e-05 0)
(0.322749 9.68168e-05 0)
(0.318383 9.15375e-05 0)
(0.31621 8.97067e-05 0)
(0.311763 8.41982e-05 0)
(0.309976 8.29166e-05 0)
(0.305408 7.71375e-05 0)
(0.304067 7.65936e-05 0)
(0.2993 7.07771e-05 0)
(0.298481 7.15124e-05 0)
(0.293407 6.59174e-05 0)
(0.293205 6.91144e-05 0)
(0.287607 7.4628e-05 0)
(0.997469 0.00359159 0)
(0.996986 0.00478481 0)
(0.996614 0.0055063 0)
(0.996417 0.00565073 0)
(0.996401 0.00556041 0)
(0.996398 0.00550978 0)
(0.996414 0.00557865 0)
(0.996347 0.00572689 0)
(0.996237 0.00589596 0)
(0.995984 0.00605789 0)
(0.995635 0.00621157 0)
(0.995069 0.00637032 0)
(0.994318 0.00653623 0)
(0.993278 0.00670095 0)
(0.99201 0.00686805 0)
(0.990409 0.00703083 0)
(0.988513 0.00719565 0)
(0.98621 0.00735489 0)
(0.983551 0.00749649 0)
(0.980433 0.00761642 0)
(0.97689 0.00769978 0)
(0.972846 0.00771278 0)
(0.968351 0.00763298 0)
(0.963379 0.00742788 0)
(0.958017 0.00705813 0)
(0.952324 0.00647488 0)
(0.946502 0.00569349 0)
(0.940652 0.00479786 0)
(0.934948 0.00392655 0)
(0.929334 0.00321485 0)
(0.923843 0.00272622 0)
(0.918331 0.00241225 0)
(0.912889 0.00221947 0)
(0.907356 0.00209278 0)
(0.901869 0.00201497 0)
(0.896238 0.00197306 0)
(0.890615 0.00195294 0)
(0.884768 0.00194301 0)
(0.878907 0.00193542 0)
(0.872783 0.0019215 0)
(0.866649 0.00190189 0)
(0.860234 0.00187574 0)
(0.853824 0.00184467 0)
(0.84714 0.0018064 0)
(0.840484 0.00176657 0)
(0.833555 0.00172089 0)
(0.826684 0.00167274 0)
(0.819569 0.00161888 0)
(0.812531 0.00156821 0)
(0.805264 0.00151513 0)
(0.798109 0.00146367 0)
(0.790724 0.00140933 0)
(0.783499 0.00135782 0)
(0.776024 0.00130552 0)
(0.768776 0.00125466 0)
(0.761245 0.00120363 0)
(0.754023 0.00115527 0)
(0.746459 0.00110768 0)
(0.739297 0.00106237 0)
(0.731737 0.00101691 0)
(0.724653 0.000975541 0)
(0.717124 0.000932894 0)
(0.710131 0.000895813 0)
(0.702661 0.000855078 0)
(0.695778 0.000821696 0)
(0.688398 0.000784113 0)
(0.681639 0.000755018 0)
(0.67435 0.000721615 0)
(0.667742 0.000695862 0)
(0.66052 0.00066768 0)
(0.654086 0.00064437 0)
(0.646914 0.000618003 0)
(0.640705 0.000594588 0)
(0.633588 0.000569374 0)
(0.627636 0.000549275 0)
(0.620576 0.00052728 0)
(0.614865 0.000512416 0)
(0.607842 0.000491897 0)
(0.602361 0.000478977 0)
(0.595371 0.000456937 0)
(0.590164 0.00044349 0)
(0.58322 0.000422096 0)
(0.578325 0.00041165 0)
(0.571378 0.000393377 0)
(0.566808 0.000385255 0)
(0.559806 0.000365887 0)
(0.55561 0.000357515 0)
(0.548546 0.000337593 0)
(0.544788 0.000330916 0)
(0.537607 0.000311955 0)
(0.534348 0.000306908 0)
(0.526992 0.00028723 0)
(0.524299 0.000283599 0)
(0.516717 0.000263029 0)
(0.514686 0.000262151 0)
(0.506778 0.000240652 0)
(0.505501 0.000242719 0)
(0.497174 0.000222014 0)
(0.496745 0.000226599 0)
(0.487838 0.000230519 0)
(0.997938 0.00366071 0)
(0.997398 0.00457295 0)
(0.996963 0.00528216 0)
(0.996697 0.00564607 0)
(0.99675 0.00572055 0)
(0.996872 0.00571732 0)
(0.997142 0.00576802 0)
(0.99736 0.0058966 0)
(0.99768 0.00606301 0)
(0.997921 0.00623715 0)
(0.998265 0.00640373 0)
(0.998495 0.00657514 0)
(0.998787 0.00675088 0)
(0.998934 0.00692703 0)
(0.999152 0.00710365 0)
(0.999228 0.0072796 0)
(0.999365 0.00745668 0)
(0.999337 0.0076321 0)
(0.999372 0.00778513 0)
(0.999234 0.00791988 0)
(0.999146 0.00801542 0)
(0.998861 0.00804165 0)
(0.998603 0.00796362 0)
(0.998087 0.00775749 0)
(0.997552 0.00739177 0)
(0.996699 0.00683097 0)
(0.995807 0.00608335 0)
(0.994551 0.0052252 0)
(0.993271 0.00438342 0)
(0.991625 0.0036811 0)
(0.990029 0.00318502 0)
(0.988116 0.00286795 0)
(0.986364 0.0026771 0)
(0.984331 0.00256228 0)
(0.982539 0.00249593 0)
(0.980442 0.00245558 0)
(0.978601 0.00243294 0)
(0.976382 0.00241922 0)
(0.974427 0.00241048 0)
(0.972035 0.00239659 0)
(0.969911 0.00238004 0)
(0.967295 0.00235748 0)
(0.964959 0.00233286 0)
(0.962098 0.00230072 0)
(0.959528 0.00226926 0)
(0.956404 0.00223136 0)
(0.953592 0.00219198 0)
(0.950209 0.00214504 0)
(0.94715 0.00210323 0)
(0.943504 0.00205666 0)
(0.940218 0.00201319 0)
(0.936304 0.00196394 0)
(0.932808 0.00191907 0)
(0.928618 0.00187031 0)
(0.924937 0.00182459 0)
(0.920472 0.00177474 0)
(0.916626 0.00172964 0)
(0.911887 0.00168166 0)
(0.907893 0.00163756 0)
(0.902898 0.00158987 0)
(0.898759 0.00154835 0)
(0.893532 0.0015018 0)
(0.889245 0.00146329 0)
(0.883809 0.00141702 0)
(0.879371 0.0013803 0)
(0.873748 0.00133539 0)
(0.869171 0.00130223 0)
(0.863355 0.00126005 0)
(0.858678 0.00122935 0)
(0.852638 0.00119143 0)
(0.847908 0.00116275 0)
(0.841619 0.00112505 0)
(0.836896 0.00109495 0)
(0.830357 0.00105687 0)
(0.825678 0.00102944 0)
(0.818907 0.000994282 0)
(0.81427 0.00097274 0)
(0.807283 0.000938916 0)
(0.802694 0.000919652 0)
(0.795503 0.000883365 0)
(0.791012 0.000862946 0)
(0.783626 0.000826034 0)
(0.779299 0.000809613 0)
(0.771682 0.000776154 0)
(0.767555 0.000763421 0)
(0.759676 0.000728122 0)
(0.75581 0.00071509 0)
(0.747664 0.000678198 0)
(0.744143 0.000667917 0)
(0.73569 0.000631424 0)
(0.732592 0.000623663 0)
(0.723794 0.000586014 0)
(0.721204 0.000580611 0)
(0.712022 0.000540698 0)
(0.710048 0.000539727 0)
(0.700419 0.000498864 0)
(0.69914 0.000500974 0)
(0.689002 0.00046219 0)
(0.688517 0.00046538 0)
(0.677766 0.000459402 0)
(0.998295 0.00378289 0)
(0.99769 0.00451276 0)
(0.997251 0.00516458 0)
(0.996861 0.0056236 0)
(0.996911 0.00580736 0)
(0.99697 0.00584146 0)
(0.997317 0.0058608 0)