/*--------------------------------*- C++ -*----------------------------------*\
| =========                 |                                                 |
| \\      /  F ield         | OpenFOAM: The Open Source CFD Toolbox           |
|  \\    /   O peration     | Version:  v2106                                 |
|   \\  /    A nd           | Website:  www.openfoam.com                      |
|    \\/     M anipulation  |                                                 |
\*---------------------------------------------------------------------------*/
FoamFile
{
    version     2.0;
    format      ascii;
    arch        "LSB;label=32;scalar=64";
    class       volScalarField;
    location    "1.9";
    object      p;
}
// * * * * * * * * * * * * * * * * * * * * * * * * * * * * * * * * * * * * * //

dimensions      [0 2 -2 0 0 0 0];

internalField   nonuniform List<scalar> 
4800
(
-3.00017e-09
-3.03917e-05
-0.000114417
-0.000195761
-0.000272564
-0.0003673
-0.000434371
-0.000454688
-0.000460659
-0.000475968
-0.000457627
-0.000382686
-0.000265886
-0.000102449
0.000135408
0.000422886
0.000833528
0.00136876
0.00197183
0.00264891
7.90774e-06
-3.37902e-05
-0.000112401
-0.000197834
-0.000268392
-0.000369492
-0.000424746
-0.000456439
-0.000455353
-0.000479589
-0.000448935
-0.000386036
-0.000261498
-0.00010734
0.000140694
0.000415768
0.000827479
0.00131265
0.00178153
0.00228415
1.04379e-05
-3.60722e-05
-0.000111244
-0.000198458
-0.000267315
-0.00036941
-0.000421533
-0.000456053
-0.000454321
-0.000479685
-0.000446683
-0.000384726
-0.000260216
-0.000109347
0.000135844
0.000398698
0.000774271
0.00118934
0.00160236
0.00204417
1.8133e-05
-3.91187e-05
-0.000109951
-0.000199198
-0.000265362
-0.000368224
-0.000418736
-0.000453129
-0.000455644
-0.000475785
-0.000446369
-0.00037988
-0.0002589
-0.000107
0.000119301
0.000379732
0.000704455
0.00107171
0.0014284
0.00177063
2.29827e-05
-4.14264e-05
-0.00010928
-0.00019904
-0.000264735
-0.000365391
-0.000417851
-0.000449243
-0.000456718
-0.000472728
-0.000442107
-0.000375721
-0.000260162
-0.000111076
0.000105356
0.000342781
0.000624081
0.000924896
0.00117764
0.00148744
2.9584e-05
-4.23117e-05
-0.000109817
-0.000197487
-0.000266471
-0.000359668
-0.000417135
-0.000445158
-0.000455514
-0.00046857
-0.000439782
-0.000372298
-0.000262986
-0.000115696
7.93117e-05
0.000284562
0.000500842
0.000706797
0.000944415
0.00125117
3.55373e-05
-4.16757e-05
-0.000111502
-0.000195076
-0.000267043
-0.000355977
-0.000413093
-0.000441209
-0.000453873
-0.000466191
-0.000437902
-0.000369769
-0.000264775
-0.000126375
3.79303e-05
0.00017598
0.000313345
0.000516541
0.000756859
0.00105142
4.10155e-05
-3.81889e-05
-0.000114571
-0.000193307
-0.000265319
-0.000351541
-0.000407827
-0.00043734
-0.000452466
-0.000464491
-0.000435667
-0.000368732
-0.000271806
-0.000158291
-6.20974e-05
2.3731e-05
0.000165371
0.000368524
0.000590992
0.000855296
4.57235e-05
-3.21927e-05
-0.000114893
-0.000194947
-0.000264084
-0.000345507
-0.000401248
-0.000434004
-0.000451819
-0.000462955
-0.000435007
-0.00037541
-0.000300094
-0.000243483
-0.000181955
-8.3054e-05
5.47851e-05
0.000227157
0.000416865
0.000652334
5.11015e-05
-2.55747e-05
-0.000112696
-0.000195094
-0.000264296
-0.000338862
-0.000393822
-0.000431155
-0.000452163
-0.000462795
-0.000438982
-0.000397358
-0.00038479
-0.000350783
-0.000264708
-0.000160766
-5.42928e-05
7.57526e-05
0.000231452
0.000442509
5.4725e-05
-1.73907e-05
-0.000107401
-0.000191749
-0.000264035
-0.000333071
-0.00038815
-0.000429399
-0.00045482
-0.00046729
-0.000462622
-0.000480883
-0.000463536
-0.000409596
-0.000325914
-0.000246563
-0.000175646
-8.65016e-05
3.70812e-05
0.00022821
5.89348e-05
-9.30752e-06
-9.83228e-05
-0.000186061
-0.000258543
-0.000329736
-0.000387092
-0.000432152
-0.000463209
-0.000495054
-0.000541868
-0.000540573
-0.000502722
-0.000453847
-0.000398541
-0.000349663
-0.000311179
-0.000256838
-0.000161845
1.16052e-05
6.08758e-05
2.25535e-06
-8.70418e-05
-0.000174517
-0.000249056
-0.000327381
-0.000394717
-0.000446857
-0.000492328
-0.000558597
-0.000585855
-0.000569182
-0.000538162
-0.000510531
-0.000486295
-0.000468036
-0.000457044
-0.0004317
-0.000362451
-0.000204551
6.35306e-05
1.10092e-05
-6.92454e-05
-0.000156526
-0.000235251
-0.000325639
-0.000411842
-0.000498617
-0.000561973
-0.000589095
-0.000599427
-0.000596419
-0.000586627
-0.000581757
-0.00058406
-0.000593953
-0.000609345
-0.000610217
-0.000562887
-0.000418241
7.16326e-05
1.80818e-05
-5.01375e-05
-0.000137424
-0.000221597
-0.000332454
-0.000461577
-0.000549147
-0.000590524
-0.000614159
-0.000627472
-0.000638309
-0.000649034
-0.000663754
-0.000688366
-0.000724559
-0.000766278
-0.000791448
-0.000763236
-0.000630058
8.25044e-05
3.0643e-05
-3.33887e-05
-0.00012271
-0.000222471
-0.000353909
-0.000497117
-0.000581966
-0.000625144
-0.000653193
-0.00067076
-0.000690805
-0.000717952
-0.000752334
-0.000798617
-0.000859447
-0.000926804
-0.000974752
-0.000963828
-0.000840525
9.77922e-05
4.97339e-05
-1.98588e-05
-0.000115521
-0.000233451
-0.000388929
-0.00053065
-0.000613217
-0.000658983
-0.000694068
-0.000719888
-0.000749323
-0.000791685
-0.000846566
-0.000914824
-0.000998747
-0.00108948
-0.00115884
-0.00116432
-0.00104996
0.000118886
7.21461e-05
-9.19764e-06
-0.000121948
-0.000258598
-0.00041939
-0.000558932
-0.000641812
-0.000693275
-0.000738133
-0.00077495
-0.000814688
-0.000871718
-0.000947224
-0.00103805
-0.00114391
-0.00125561
-0.00134459
-0.00136579
-0.00125994
0.000144883
9.80096e-05
-1.5085e-06
-0.000142852
-0.000295011
-0.000446575
-0.000580939
-0.000671386
-0.000730522
-0.000785331
-0.00083529
-0.000887984
-0.00096012
-0.00105562
-0.00116838
-0.00129485
-0.00142526
-0.0015316
-0.00156723
-0.00146957
0.000172101
0.000122182
2.38756e-06
-0.000162914
-0.000328172
-0.000478034
-0.00061086
-0.000705244
-0.000771038
-0.000836179
-0.000901324
-0.00096944
-0.00105667
-0.00117054
-0.00130414
-0.00145025
-0.00159766
-0.001719
-0.00176717
-0.00167712
0.000199356
0.0001441
3.36584e-06
-0.000180554
-0.000359476
-0.000515107
-0.00064813
-0.000744919
-0.000816489
-0.000891582
-0.00097233
-0.00105753
-0.00116039
-0.00129125
-0.00144448
-0.00160961
-0.00177267
-0.00190669
-0.00196514
-0.0018817
0.000224624
0.000163076
5.31704e-06
-0.000196437
-0.000390567
-0.000554688
-0.000690872
-0.000791442
-0.000868731
-0.000952535
-0.00104812
-0.00115143
-0.00127097
-0.00141794
-0.00158904
-0.00177199
-0.00194945
-0.0020942
-0.00216087
-0.00208288
0.000247034
0.000179551
8.07725e-06
-0.000211228
-0.000421664
-0.000596991
-0.000739289
-0.000845325
-0.000928448
-0.00101999
-0.00112912
-0.00125069
-0.00138771
-0.00155023
-0.00173734
-0.00193617
-0.00212694
-0.00228128
-0.00235468
-0.00228093
0.000267133
0.000193694
9.51016e-06
-0.000226081
-0.000453055
-0.000641437
-0.000792241
-0.000905639
-0.000995717
-0.0010946
-0.00121596
-0.00135483
-0.00150951
-0.00168726
-0.00188881
-0.00210146
-0.00230427
-0.00246748
-0.00254654
-0.00247578
0.00028464
0.000204764
9.0232e-06
-0.000241486
-0.000484543
-0.000687637
-0.00084918
-0.000971939
-0.00107056
-0.00117704
-0.00130911
-0.00146361
-0.00163549
-0.00182827
-0.00204269
-0.00226725
-0.00248046
-0.00265158
-0.00273557
-0.0026669
0.000299238
0.00021317
6.12249e-06
-0.00025859
-0.000517267
-0.000735697
-0.000909674
-0.00104337
-0.00115212
-0.00126691
-0.00140852
-0.00157677
-0.00176482
-0.00197214
-0.00219817
-0.00243287
-0.00265483
-0.00283259
-0.00292086
-0.00285388
0.000310752
0.000218383
4.20476e-07
-0.000278179
-0.000551936
-0.000785644
-0.000972941
-0.00111895
-0.00123931
-0.00136346
-0.00151405
-0.00169413
-0.00189679
-0.00211769
-0.00235433
-0.00259756
-0.00282683
-0.00300999
-0.00310171
-0.00303622
0.000318811
0.000220311
-8.33546e-06
-0.000300729
-0.000589089
-0.000837911
-0.00103881
-0.00119788
-0.00133107
-0.00146562
-0.00162508
-0.00181523
-0.00203033
-0.00226356
-0.00251012
-0.00276064
-0.00299584
-0.0031835
-0.00327786
-0.00321343
0.00032301
0.000218485
-2.0206e-05
-0.000325791
-0.000628952
-0.000892942
-0.00110738
-0.00127946
-0.00142615
-0.00157207
-0.00174049
-0.00193936
-0.0021648
-0.00240882
-0.0026646
-0.00292164
-0.00316145
-0.00335263
-0.00344886
-0.00338479
0.000323364
0.000213033
-3.55058e-05
-0.000353833
-0.000671539
-0.000950602
-0.00117858
-0.00136336
-0.00152347
-0.00168133
-0.00185902
-0.00206571
-0.00229962
-0.00255265
-0.00281653
-0.00307949
-0.00332286
-0.00351641
-0.00361384
-0.00354956
0.000319531
0.000203432
-5.44465e-05
-0.000384839
-0.000716708
-0.00101057
-0.0012521
-0.00144917
-0.00162203
-0.00179182
-0.00197907
-0.00219315
-0.00243389
-0.0026941
-0.0029646
-0.00323273
-0.00347913
-0.00367414
-0.00377218
-0.00370741
0.000311691
0.000189991
-7.70367e-05
-0.000418826
-0.000764238
-0.00107247
-0.00132738
-0.00153633
-0.00172093
-0.00190211
-0.00209888
-0.00232005
-0.00256647
-0.00283223
-0.0031079
-0.00338026
-0.00362933
-0.00382534
-0.00392341
-0.00385785
0.000299755
0.000172771
-0.000102943
-0.000455589
-0.000813824
-0.00113553
-0.00140355
-0.00162411
-0.00181953
-0.00201113
-0.00221662
-0.00244441
-0.00269583
-0.00296589
-0.00324551
-0.00352108
-0.0037723
-0.00396911
-0.00406683
-0.0040002
0.000284001
0.000151909
-0.000131679
-0.000494367
-0.000864934
-0.00119906
-0.00147936
-0.00171128
-0.00191664
-0.00211736
-0.00233058
-0.00256435
-0.00282035
-0.00309403
-0.00337659
-0.00365444
-0.0039071
-0.00410446
-0.00420168
-0.00413383
0.000264989
0.000128118
-0.00016275
-0.000534462
-0.000916575
-0.00126217
-0.00155364
-0.00179611
-0.00201068
-0.00221936
-0.00243932
-0.0026785
-0.00293853
-0.00321537
-0.00350011
-0.00377947
-0.0040329
-0.00423042
-0.00432711
-0.00425801
0.000243433
0.000102396
-0.000195058
-0.000574985
-0.000967623
-0.00132339
-0.00162492
-0.00187703
-0.00210004
-0.00231588
-0.00254146
-0.00278537
-0.00304884
-0.00332833
-0.00361479
-0.00389506
-0.00414881
-0.00434614
-0.00444223
-0.00437196
0.000220612
7.55148e-05
-0.000227474
-0.00061406
-0.00101633
-0.00138108
-0.00169118
-0.00195211
-0.00218275
-0.00240515
-0.00263534
-0.00288308
-0.00314957
-0.00343128
-0.00371921
-0.00400006
-0.00425385
-0.00445084
-0.0045464
-0.00447519
0.000197634
4.91005e-05
-0.00025842
-0.000649699
-0.00106037
-0.00143367
-0.00175037
-0.00201862
-0.00225597
-0.00248405
-0.00271807
-0.00296856
-0.00323748
-0.00352111
-0.00381032
-0.00409152
-0.00434507
-0.00454152
-0.00463655
-0.00456482
0.000176876
2.59527e-05
-0.00028595
-0.000680626
-0.00109723
-0.00147824
-0.00179945
-0.00207238
-0.00231519
-0.00254793
-0.00278499
-0.00303711
-0.00330759
-0.00359269
-0.00388302
-0.0041645
-0.0044177
-0.00461345
-0.0047077
-0.00463504
0.000158707
5.00237e-06
-0.000311826
-0.000711056
-0.00113245
-0.00152118
-0.00184829
-0.00212534
-0.00237311
-0.00261093
-0.00285197
-0.00310643
-0.00337879
-0.00366577
-0.00395788
-0.00424059
-0.00449443
-0.00469051
-0.00478508
-0.00471276
0.00342002
0.00355564
0.00336016
0.0031965
0.0031003
0.00299568
0.00281585
0.0025491
0.0022269
0.00188494
0.00153776
0.00118637
0.000832321
0.000477982
0.000120749
-0.000246755
-0.000631157
-0.00104178
-0.00149468
-0.00200259
-0.00257067
-0.00320498
-0.00390629
-0.004663
-0.00544116
-0.00617615
-0.00677597
-0.00715599
-0.00727867
-0.0071667
-0.00689705
-0.00656028
-0.0062215
-0.00591677
-0.00566711
-0.00548252
-0.00536203
-0.00529332
-0.00526358
-0.00526503
-0.00529439
-0.00534225
-0.00540129
-0.0054675
-0.00553998
-0.0056128
-0.005684
-0.00575672
-0.00583139
-0.00590691
-0.00598176
-0.00605735
-0.00613167
-0.00620717
-0.00628211
-0.00635642
-0.0064308
-0.00650649
-0.00658201
-0.00665588
-0.00673125
-0.00680657
-0.00688277
-0.00695765
-0.0070336
-0.00710934
-0.00718529
-0.00726192
-0.00734013
-0.00742003
-0.0074994
-0.00757965
-0.00766052
-0.00774091
-0.00782148
-0.00790312
-0.00798642
-0.00807071
-0.0081555
-0.00824186
-0.00832873
-0.00841521
-0.00850162
-0.00858751
-0.00867594
-0.00876504
-0.00885551
-0.00894664
-0.00903643
-0.00912579
-0.00921354
-0.00930569
-0.00939557
-0.0094859
-0.00957213
-0.00965801
-0.00974034
-0.0098192
-0.00988405
-0.00994539
0.00280357
0.0031624
0.00324955
0.00318439
0.00308642
0.00296379
0.00277844
0.00251559
0.00219849
0.00185952
0.00151351
0.00116258
0.00080888
0.000455035
9.85963e-05
-0.000267922
-0.000651048
-0.00105976
-0.00151005
-0.00201489
-0.00257902
-0.00320782
-0.0039015
-0.00464688
-0.00541194
-0.00613561
-0.00673053
-0.00711519
-0.00724702
-0.00714386
-0.00688059
-0.00654785
-0.00621105
-0.00590816
-0.00565998
-0.00547644
-0.00535667
-0.00528846
-0.00525907
-0.00526079
-0.00529043
-0.0053385
-0.00539772
-0.00546411
-0.00553681
-0.00560983
-0.00568121
-0.00575411
-0.00582895
-0.00590465
-0.00597964
-0.00605539
-0.00612983
-0.00620547
-0.00628053
-0.00635494
-0.00642941
-0.00650519
-0.0065808
-0.00665472
-0.00673016
-0.00680554
-0.0068818
-0.00695673
-0.00703272
-0.0071085
-0.00718448
-0.00726115
-0.00733939
-0.00741932
-0.0074987
-0.00757899
-0.00765988
-0.00774029
-0.00782087
-0.00790254
-0.00798586
-0.00807017
-0.00815497
-0.00824134
-0.00832824
-0.00841473
-0.00850116
-0.00858707
-0.00867551
-0.00876463
-0.00885511
-0.00894626
-0.00903606
-0.00912544
-0.00921319
-0.00930536
-0.00939524
-0.0094856
-0.00957183
-0.00965773
-0.00974007
-0.00981896
-0.0098838
-0.00994515
0.00247375
0.00291232
0.00317858
0.00322035
0.00312852
0.00297402
0.00276374
0.00249207
0.00217424
0.00183553
0.00148866
0.00113607
0.000780833
0.000425939
6.90868e-05
-0.000297107
-0.000679168
-0.00108598
-0.00153307
-0.00203345
-0.00259155
-0.00321089
-0.00389044
-0.00461439
-0.00535098
-0.00604579
-0.00662135
-0.00700238
-0.00714884
-0.0070726
-0.00683544
-0.00652094
-0.00619514
-0.00589874
-0.00565606
-0.00547661
-0.0053589
-0.00529125
-0.00526176
-0.00526309
-0.00529215
-0.00533962
-0.00539828
-0.00546416
-0.00553641
-0.0056091
-0.00568026
-0.005753
-0.00582769
-0.00590326
-0.00597816
-0.00605386
-0.00612826
-0.0062039
-0.00627897
-0.00635341
-0.00642791
-0.00650373
-0.00657938
-0.00665336
-0.00672886
-0.00680428
-0.0068806
-0.00695557
-0.00703163
-0.00710748
-0.00718353
-0.00726027
-0.00733856
-0.00741855
-0.00749798
-0.00757829
-0.00765921
-0.00773965
-0.00782027
-0.00790198
-0.00798534
-0.00806969
-0.00815451
-0.0082409
-0.00832779
-0.0084143
-0.00850075
-0.00858669
-0.00867516
-0.0087643
-0.00885478
-0.00894594
-0.00903574
-0.00912515
-0.0092129
-0.0093051
-0.00939499
-0.00948536
-0.0095716
-0.00965753
-0.00973988
-0.00981881
-0.00988383
-0.00994517
0.00217749
0.00266642
0.00304228
0.0031816
0.0031271
0.00296426
0.00273395
0.0024507
0.00213077
0.00179394
0.00144899
0.00109702
0.000741587
0.000386355
2.94722e-05
-0.000336067
-0.000716727
-0.00112086
-0.00156348
-0.00205758
-0.00260724
-0.00321333
-0.00387322
-0.0045715
-0.00527563
-0.00593767
-0.00649067
-0.00686733
-0.00702992
-0.00698412
-0.00677819
-0.00648679
-0.00617532
-0.00588756
-0.00565061
-0.00547479
-0.00535872
-0.00529148
-0.00526192
-0.00526293
-0.00529144
-0.00533829
-0.00539644
-0.00546183
-0.00553362
-0.00560603
-0.00567714
-0.00574991
-0.00582457
-0.00590012
-0.00597504
-0.00605077
-0.00612524
-0.00620097
-0.00627615
-0.00635075
-0.00642538
-0.00650132
-0.0065771
-0.00665122
-0.00672685
-0.00680237
-0.00687878
-0.00695384
-0.00702999
-0.00710594
-0.0071821
-0.00725896
-0.00733736
-0.00741743
-0.00749692
-0.00757728
-0.00765823
-0.00773869
-0.00781934
-0.00790111
-0.00798454
-0.00806898
-0.00815384
-0.00824024
-0.00832711
-0.00841361
-0.00850008
-0.00858608
-0.00867461
-0.00876379
-0.00885425
-0.0089454
-0.0090352
-0.00912466
-0.00921245
-0.00930468
-0.00939455
-0.00948495
-0.00957122
-0.00965718
-0.00973961
-0.00981854
-0.009884
-0.00994531
0.00191365
0.00243951
0.0028902
0.00311108
0.00310952
0.00295783
0.00271739
0.00242139
0.00209379
0.00175427
0.00140947
0.00105816
0.000702531
0.000346683
-1.0269e-05
-0.000374981
-0.000753989
-0.00115497
-0.00159244
-0.00207922
-0.00261891
-0.00320984
-0.00384732
-0.00451693
-0.0051883
-0.00581856
-0.00634986
-0.00672239
-0.0069001
-0.00688397
-0.00671119
-0.00644631
-0.00615213
-0.00587465
-0.00564359
-0.00547108
-0.00535666
-0.00529021
-0.00526105
-0.0052621
-0.00529027
-0.00533665
-0.00539434
-0.00545927
-0.00553055
-0.00560266
-0.00567373
-0.0057465
-0.00582108
-0.00589657
-0.00597146
-0.00604715
-0.00612165
-0.00619742
-0.00627269
-0.00634742
-0.00642219
-0.00649822
-0.00657412
-0.00664841
-0.00672419
-0.00679981
-0.0068763
-0.00695146
-0.00702772
-0.00710379
-0.00718011
-0.00725715
-0.00733568
-0.00741587
-0.00749545
-0.00757587
-0.00765683
-0.00773732
-0.00781802
-0.00789988
-0.00798341
-0.00806797
-0.00815292
-0.00823932
-0.00832613
-0.00841261
-0.00849911
-0.00858523
-0.00867385
-0.00876309
-0.00885352
-0.00894463
-0.00903441
-0.00912396
-0.0092118
-0.00930407
-0.00939393
-0.00948434
-0.00957067
-0.00965666
-0.00973924
-0.00981815
-0.00988433
-0.00994561
0.00168757
0.00223446
0.0027315
0.00301874
0.00307418
0.00294996
0.00271089
0.00240315
0.00206283
0.00171525
0.00136767
0.00101651
0.000661011
0.000304563
-5.23238e-05
-0.000415588
-0.000792322
-0.00118965
-0.00162115
-0.00209949
-0.0026277
-0.00320221
-0.00381627
-0.00445676
-0.00509658
-0.0056969
-0.00620734
-0.0065752
-0.00676635
-0.00677808
-0.00663825
-0.00640156
-0.00612695
-0.00586115
-0.00563633
-0.00546704
-0.00535414
-0.00528845
-0.00525983
-0.00526108
-0.005289
-0.00533497
-0.00539224
-0.00545664
-0.00552738
-0.00559913
-0.00567011
-0.00574281
-0.00581726
-0.00589266
-0.00596747
-0.00604311
-0.0061176
-0.0061934
-0.00626874
-0.00634362
-0.0064185
-0.00649463
-0.00657066
-0.00664512
-0.00672105
-0.00679679
-0.00687337
-0.00694864
-0.007025
-0.00710121
-0.00717771
-0.00725496
-0.00733363
-0.00741396
-0.00749364
-0.00757412
-0.00765508
-0.00773561
-0.00781635
-0.00789832
-0.00798197
-0.00806671
-0.00815174
-0.00823816
-0.00832488
-0.00841132
-0.00849785
-0.00858412
-0.00867286
-0.0087622
-0.00885258
-0.00894362
-0.00903336
-0.00912302
-0.00921095
-0.00930326
-0.0093931
-0.0094835
-0.00956993
-0.00965594
-0.00973876
-0.00981761
-0.00988472
-0.009946
0.00147621
0.00203104
0.0025636
0.00290544
0.00301699
0.00292993
0.00270292
0.00238908
0.00203565
0.0016767
0.001323
0.000970544
0.000615362
0.000258604
-9.82328e-05
-0.000459371
-0.000832817
-0.00122582
-0.00165048
-0.00211909
-0.0026345
-0.00319172
-0.00378208
-0.00439352
-0.00500269
-0.00557464
-0.00606489
-0.00642707
-0.00662924
-0.00666632
-0.00655864
-0.00635148
-0.0060987
-0.0058463
-0.00562852
-0.00546259
-0.0053511
-0.00528605
-0.00525797
-0.00525952
-0.00528727
-0.00533288
-0.00538976
-0.00545366
-0.00552382
-0.00559522
-0.00566608
-0.00573871
-0.00581301
-0.00588831
-0.00596304
-0.00603862
-0.0061131
-0.00618893
-0.00626436
-0.0063394
-0.00641441
-0.00649064
-0.00656684
-0.0066415
-0.00671759
-0.00679345
-0.00687012
-0.00694552
-0.00702199
-0.00709836
-0.00717505
-0.00725252
-0.00733136
-0.00741184
-0.00749163
-0.00757217
-0.00765311
-0.00773367
-0.00781446
-0.00789654
-0.00798034
-0.00806528
-0.0081504
-0.00823683
-0.00832343
-0.00840982
-0.00849638
-0.00858283
-0.00867171
-0.00876116
-0.00885146
-0.00894241
-0.00903209
-0.00912189
-0.00920994
-0.00930228
-0.00939209
-0.00948247
-0.00956904
-0.00965505
-0.00973818
-0.00981697
-0.0098851
-0.00994643
0.00126116
0.00182108
0.00238522
0.00277533
0.00293959
0.00289517
0.00268883
0.0023761
0.0020119
0.0016398
0.00127675
0.000920475
0.000565181
0.000208854
-0.000147672
-0.000506426
-0.000875511
-0.00126315
-0.00167994
-0.00213745
-0.00263883
-0.00317801
-0.00374469
-0.00432757
-0.00490688
-0.00545146
-0.00592175
-0.0062771
-0.00648815
-0.00654827
-0.00647169
-0.00629512
-0.00606615
-0.00582916
-0.00561975
-0.00545764
-0.00534748
-0.00528284
-0.00525515
-0.00525703
-0.00528469
-0.00533002
-0.00538663
-0.00545013
-0.00551977
-0.00559083
-0.0056616
-0.00573418
-0.00580832
-0.0058835
-0.00595817
-0.00603369
-0.00610817
-0.00618406
-0.00625958
-0.00633481
-0.00640998
-0.00648633
-0.0065627
-0.0066376
-0.00671385
-0.00678985
-0.00686662
-0.00694216
-0.00701874
-0.00709528
-0.00717216
-0.00724989
-0.00732889
-0.00740954
-0.00748944
-0.00757005
-0.00765096
-0.00773155
-0.00781238
-0.00789461
-0.00797856
-0.00806372
-0.00814894
-0.00823537
-0.00832183
-0.00840817
-0.00849476
-0.00858142
-0.00867045
-0.00876001
-0.00885023
-0.00894107
-0.00903068
-0.00912063
-0.00920882
-0.00930117
-0.00939097
-0.0094813
-0.00956804
-0.00965405
-0.00973753
-0.0098163
-0.00988544
-0.0099469
0.00104142
0.0016057
0.00219851
0.00263327
0.00284636
0.002845
0.00266564
0.00236068
0.00198984
0.00160494
0.00123056
0.000867737
0.000511025
0.00015592
-0.000199566
-0.0005562
-0.000920319
-0.00130107
-0.00170869
-0.00215401
-0.0026404
-0.00316092
-0.0037041
-0.00425908
-0.00480913
-0.00532706
-0.0057778
-0.00612561
-0.00634382
-0.00642471
-0.00637766
-0.00623199
-0.0060285
-0.00580886
-0.00560941
-0.00545186
-0.00534312
-0.00527877
-0.00525132
-0.0052535
-0.00528118
-0.00532637
-0.00538284
-0.00544607
-0.00551524
-0.00558598
-0.00565671
-0.00572926
-0.00580323
-0.00587829
-0.0059529
-0.00602839
-0.00610289
-0.00617884
-0.00625447
-0.00632991
-0.00640527
-0.00648173
-0.00655828
-0.00663342
-0.00670986
-0.00678599
-0.00686285
-0.00693854
-0.00701525
-0.00709196
-0.00716905
-0.00724705
-0.00732625
-0.00740707
-0.00748709
-0.00756776
-0.00764865
-0.00772926
-0.00781014
-0.00789252
-0.00797665
-0.00806205
-0.00814737
-0.00823378
-0.0083201
-0.00840637
-0.00849301
-0.00857989
-0.00866909
-0.00875876
-0.00884889
-0.0089396
-0.00902916
-0.00911925
-0.00920761
-0.00929995
-0.00938976
-0.00948002
-0.00956698
-0.00965297
-0.00973683
-0.00981562
-0.00988571
-0.0099474
0.000818903
0.00138823
0.00200759
0.00248359
0.0027417
0.00278119
0.00263145
0.00233991
0.0019676
0.00157216
0.00118574
0.000814134
0.000453796
9.98866e-05
-0.000253355
-0.000607966
-0.000967306
-0.00133973
-0.0017366
-0.00216879
-0.00263931
-0.00314055
-0.00366034
-0.00418809
-0.00470964
-0.0052018
-0.0056335
-0.00597317
-0.00619678
-0.00629602
-0.0062764
-0.0061612
-0.0059846
-0.00578451
-0.00559701
-0.00544525
-0.00533838
-0.00527427
-0.00524685
-0.00524909
-0.00527671
-0.00532185
-0.00537828
-0.00544134
-0.00551017
-0.00558066
-0.00565137
-0.00572394
-0.00579779
-0.00587271
-0.00594727
-0.00602275
-0.00609727
-0.00617326
-0.00624901
-0.00632466
-0.00640022
-0.00647683
-0.00655354
-0.00662892
-0.00670558
-0.00678186
-0.00685882
-0.00693465
-0.0070115
-0.0070884
-0.00716572
-0.00724401
-0.00732342
-0.00740443
-0.00748456
-0.0075653
-0.00764615
-0.00772679
-0.00780773
-0.00789028
-0.00797461
-0.00806024
-0.00814567
-0.00823206
-0.00831823
-0.00840444
-0.00849114
-0.00857825
-0.00866763
-0.0087574
-0.00884745
-0.00893802
-0.00902754
-0.00911776
-0.00920633
-0.00929864
-0.00938847
-0.00947863
-0.00956584
-0.00965182
-0.00973607
-0.00981493
-0.00988588
-0.00994793
0.000595531
0.00117091
0.00181451
0.00232807
0.00262773
0.00270547
0.00258564
0.00231154
0.0019429
0.0015404
0.00114263
0.00076091
0.000394686
4.08446e-05
-0.000308982
-0.00066094
-0.00101621
-0.00137977
-0.00176416
-0.00218186
-0.00263562
-0.0031171
-0.00361361
-0.00411483
-0.0046088
-0.00507602
-0.00548899
-0.00581983
-0.00604718
-0.0061626
-0.00616849
-0.00608295
-0.00593426
-0.00575583
-0.00558227
-0.00543771
-0.00533327
-0.00526928
-0.00524162
-0.00524368
-0.00527109
-0.00531626
-0.00537283
-0.00543586
-0.00550451
-0.00557487
-0.00564558
-0.0057182
-0.00579196
-0.00586676
-0.00594123
-0.00601668
-0.00609122
-0.00616728
-0.00624315
-0.00631902
-0.00639477
-0.00647157
-0.00654848
-0.0066241
-0.00670098
-0.00677745
-0.0068545
-0.00693047
-0.00700747
-0.00708458
-0.00716214
-0.00724073
-0.00732037
-0.00740158
-0.00748185
-0.00756265
-0.00764346
-0.00772413
-0.00780514
-0.00788786
-0.00797242
-0.00805831
-0.00814386
-0.00823021
-0.00831623
-0.00840236
-0.00848913
-0.00857647
-0.00866608
-0.00875594
-0.00884592
-0.00893631
-0.0090258
-0.00911615
-0.00920496
-0.00929723
-0.0093871
-0.00947715
-0.00956462
-0.00965061
-0.00973525
-0.00981425
-0.00988595
-0.00994845
0.0003731
0.000955347
0.00162082
0.00216789
0.00250553
0.00261877
0.00252796
0.00227379
0.00191303
0.00150749
0.00110028
0.000708486
0.000334905
-2.07946e-05
-0.000366976
-0.000714831
-0.00106614
-0.00142137
-0.00179208
-0.00219329
-0.00262919
-0.00309076
-0.00356414
-0.00403935
-0.00450678
-0.00494999
-0.00534463
-0.00566631
-0.00589602
-0.00602556
-0.00605509
-0.00599781
-0.0058771
-0.00572191
-0.00556411
-0.00542833
-0.00532732
-0.0052637
-0.00523573
-0.0052375
-0.00526451
-0.00530962
-0.00536644
-0.00542957
-0.00549811
-0.00556844
-0.00563922
-0.00571192
-0.00578566
-0.00586037
-0.00593474
-0.00601014
-0.00608473
-0.00616088
-0.0062369
-0.006313
-0.00638897
-0.00646595
-0.00654309
-0.00661894
-0.00669602
-0.00677269
-0.00684985
-0.00692596
-0.00700312
-0.00708047
-0.00715829
-0.00723721
-0.0073171
-0.00739852
-0.00747893
-0.00755979
-0.00764058
-0.00772127
-0.00780236
-0.00788527
-0.00797006
-0.00805622
-0.00814191
-0.00822821
-0.00831408
-0.00840011
-0.00848699
-0.00857457
-0.00866442
-0.00875437
-0.00884428
-0.00893447
-0.00902395
-0.00911442
-0.00920351
-0.00929572
-0.00938564
-0.00947556
-0.00956333
-0.00964935
-0.00973436
-0.00981354
-0.00988592
-0.00994897
0.000153378
0.000742992
0.00142777
0.00200422
0.00237586
0.0025216
0.0024583
0.00222515
0.00187588
0.00147133
0.00105742
0.00065645
0.000275297
-8.38768e-05
-0.000427411
-0.000769604
-0.00111595
-0.0014638
-0.0018207
-0.00220324
-0.00261954
-0.00306128
-0.00351216
-0.00396198
-0.00440387
-0.0048241
-0.00520098
-0.00551327
-0.00574402
-0.00588557
-0.00593657
-0.00590585
-0.00581253
-0.00568162
-0.00554163
-0.00541656
-0.00532039
-0.00525781
-0.00522946
-0.00523065
-0.00525699
-0.00530175
-0.0053588
-0.00542221
-0.00549077
-0.00556123
-0.00563224
-0.00570508
-0.00577884
-0.00585351
-0.0059278
-0.00600315
-0.00607781
-0.00615408
-0.00623023
-0.00630655
-0.00638271
-0.00645986
-0.00653726
-0.00661339
-0.00669068
-0.00676755
-0.00684486
-0.00692113
-0.00699846
-0.00707604
-0.00715416
-0.00723344
-0.0073136
-0.00739523
-0.00747581
-0.00755672
-0.00763748
-0.00771819
-0.00779938
-0.00788248
-0.00796754
-0.00805398
-0.00813983
-0.00822607
-0.00831178
-0.0083977
-0.00848468
-0.00857252
-0.00866264
-0.00875269
-0.00884253
-0.00893249
-0.00902197
-0.00911257
-0.00920196
-0.00929411
-0.00938407
-0.00947389
-0.00956193
-0.00964803
-0.0097334
-0.00981281
-0.00988578
-0.00994944
-6.28735e-05
0.000533829
0.00123513
0.00183689
0.00223881
0.00241433
0.00237702
0.00216518
0.00183013
0.00143023
0.00101286
0.000604372
0.000216458
-0.000146794
-0.000489402
-0.000825333
-0.00116474
-0.00150546
-0.00184968
-0.0022126
-0.00260744
-0.00302906
-0.00345854
-0.00388375
-0.00430047
-0.00469841
-0.00505814
-0.00536091
-0.0055916
-0.00574313
-0.00581338
-0.00580757
-0.00574071
-0.00563447
-0.00551416
-0.00540175
-0.00531182
-0.00525118
-0.00522258
-0.00522293
-0.00524846
-0.00529276
-0.00534988
-0.0054137
-0.00548245
-0.00555314
-0.00562452
-0.00569761
-0.00577144
-0.00584612
-0.00592041
-0.00599571
-0.00607036
-0.00614671
-0.00622304
-0.00629957
-0.00637598
-0.00645332
-0.00653101
-0.00660748
-0.00668501
-0.00676204
-0.0068395
-0.00691596
-0.00699345
-0.00707128
-0.00714973
-0.0072294
-0.00730986
-0.00739171
-0.00747245
-0.00755341
-0.00763413
-0.00771486
-0.00779617
-0.00787949
-0.00796486
-0.00805158
-0.0081376
-0.00822377
-0.00830931
-0.0083951
-0.00848221
-0.00857033
-0.00866075
-0.00875088
-0.00884066
-0.00893038
-0.00901984
-0.00911058
-0.00920032
-0.0092924
-0.00938239
-0.00947211
-0.00956043
-0.00964667
-0.00973235
-0.00981204
-0.00988553
-0.00994987
-0.000276904
0.000326162
0.00104157
0.00166506
0.00209418
0.00229746
0.00228487
0.00209402
0.00177485
0.00138273
0.000965242
0.000551676
0.000158176
-0.000208673
-0.0005515
-0.00088191
-0.00121273
-0.00154555
-0.00187872
-0.00222294
-0.00259458
-0.00299437
-0.00340311
-0.00380493
-0.00419671
-0.00457289
-0.00491654
-0.00521
-0.00543963
-0.00559915
-0.00568633
-0.00570373
-0.00566224
-0.00558031
-0.00548067
-0.00538287
-0.00530085
-0.00524332
-0.00521511
-0.00521463
-0.0052392
-0.00528289
-0.00533978
-0.00540385
-0.005473
-0.00554406
-0.00561593
-0.00568942
-0.0057634
-0.0058381
-0.00591242
-0.00598769
-0.00606234
-0.00613878
-0.00621537
-0.0062922
-0.00636885
-0.00644639
-0.00652434
-0.00660113
-0.00667892
-0.00675613
-0.00683372
-0.00691039
-0.00698809
-0.00706617
-0.00714496
-0.00722506
-0.00730585
-0.00738793
-0.00746887
-0.00754987
-0.00763056
-0.00771129
-0.00779273
-0.00787629
-0.00796199
-0.00804901
-0.00813522
-0.00822129
-0.00830666
-0.00839231
-0.00847957
-0.00856798
-0.00865873
-0.00874894
-0.00883865
-0.00892812
-0.00901757
-0.00910845
-0.00919855
-0.00929059
-0.00938058
-0.00947024
-0.00955883
-0.00964526
-0.00973121
-0.00981121
-0.00988519
-0.00995022
-0.000489146
0.000119619
0.000847302
0.00148933
0.00194294
0.00217256
0.00218375
0.00201304
0.0017101
0.00132788
0.000913345
0.000497751
0.000100101
-0.000269545
-0.000612663
-0.000938952
-0.00126086
-0.0015841
-0.00190671
-0.00223392
-0.00258159
-0.00295703
-0.00334493
-0.00372548
-0.00409344
-0.00444818
-0.00477662
-0.00506101
-0.00528858
-0.00545436
-0.00555618
-0.00559487
-0.00557752
-0.00551915
-0.00544038
-0.00535889
-0.00528697
-0.00523398
-0.00520697
-0.00520587
-0.00522923
-0.00527212
-0.00532864
-0.00539268
-0.00546223
-0.00553386
-0.00560623
-0.00568025
-0.00575456
-0.00582935
-0.00590377
-0.00597917
-0.0060539
-0.0061304
-0.00620721
-0.00628433
-0.0063612
-0.00643891
-0.00651715
-0.00659427
-0.0066724
-0.00674984
-0.00682753
-0.00690439
-0.00698236
-0.00706072
-0.00713987
-0.00722042
-0.0073016
-0.00738394
-0.00746505
-0.00754606
-0.0076267
-0.00770743
-0.00778903
-0.00787286
-0.00795895
-0.00804629
-0.00813268
-0.00821862
-0.0083038
-0.00838932
-0.00847675
-0.00856548
-0.00865658
-0.00874688
-0.0088365
-0.0089257
-0.00901515
-0.0091062
-0.00919665
-0.00928868
-0.00937865
-0.00946827
-0.0095571
-0.00964378
-0.00972998
-0.0098103
-0.00988474
-0.00995048
-0.000699674
-8.54055e-05
0.000653353
0.00131129
0.00178633
0.00204069
0.0020749
0.00192339
0.00163609
0.00126489
0.000856063
0.000441699
4.18978e-05
-0.000329823
-0.000672515
-0.000995174
-0.00130869
-0.00162074
-0.00193197
-0.00224394
-0.00256882
-0.00291845
-0.00328453
-0.0036459
-0.00399208
-0.00432535
-0.0046385
-0.00491413
-0.00513901