/*--------------------------------*- C++ -*----------------------------------*\
| =========                 |                                                 |
| \\      /  F ield         | OpenFOAM: The Open Source CFD Toolbox           |
|  \\    /   O peration     | Version:  v2106                                 |
|   \\  /    A nd           | Website:  www.openfoam.com                      |
|    \\/     M anipulation  |                                                 |
\*---------------------------------------------------------------------------*/
FoamFile
{
    version     2.0;
    format      ascii;
    arch        "LSB;label=32;scalar=64";
    class       surfaceScalarField;
    location    "1.9";
    object      phi;
}
// * * * * * * * * * * * * * * * * * * * * * * * * * * * * * * * * * * * * * //

dimensions      [0 3 -1 0 0 0 0];

oriented        oriented;

internalField   nonuniform List<scalar> 
9440
(
3.88121e-06
-6.28397e-09
3.87773e-06
-1.52032e-08
3.88078e-06
1.67496e-08
3.87821e-06
-1.40308e-08
3.88029e-06
3.2285e-09
3.87824e-06
-3.02607e-08
3.88008e-06
-3.08956e-09
3.87863e-06
-3.56816e-08
3.88017e-06
-5.46205e-09
3.87924e-06
-2.79754e-08
3.88107e-06
5.24279e-09
3.88105e-06
-1.36525e-08
3.88295e-06
1.39406e-08
3.88308e-06
-8.15751e-09
3.88443e-06
1.13059e-08
3.88429e-06
-1.15018e-08
3.88323e-06
5.81275e-09
3.8779e-06
-6.9624e-09
3.86338e-06
1.91291e-08
2.86582e-08
3.84157e-06
4.1831e-06
-3.52064e-09
4.18676e-06
-1.887e-08
4.18469e-06
1.8824e-08
4.18733e-06
-1.66698e-08
4.18563e-06
4.92828e-09
4.18663e-06
-3.12666e-08
4.18618e-06
-2.63983e-09
4.18537e-06
-3.4865e-08
4.18601e-06
-6.10145e-09
4.18395e-06
-2.59193e-08
4.1864e-06
2.79227e-09
4.18453e-06
-1.17797e-08
4.18823e-06
1.0243e-08
4.18661e-06
-6.54551e-09
4.1901e-06
7.8221e-09
4.18483e-06
-6.23245e-09
4.18349e-06
7.14924e-09
4.17092e-06
5.61119e-09
4.16523e-06
2.48166e-08
3.41626e-08
4.15973e-06
4.51767e-06
-1.12782e-09
4.51999e-06
-2.11928e-08
4.5197e-06
1.91206e-08
4.52052e-06
-1.74986e-08
4.52118e-06
4.27283e-09
4.51968e-06
-2.9769e-08
4.52225e-06
-5.20721e-09
4.51861e-06
-3.12216e-08
4.52239e-06
-9.88732e-09
4.51739e-06
-2.09178e-08
4.52288e-06
-2.69888e-09
4.5179e-06
-6.7936e-09
4.52511e-06
3.02838e-09
4.52129e-06
-2.72114e-09
4.5267e-06
2.40926e-09
4.52092e-06
-4.58048e-10
4.52335e-06
4.72667e-09
4.51545e-06
1.35091e-08
4.51446e-06
2.58011e-08
4.79036e-08
4.50072e-06
4.88043e-06
-6.0543e-10
4.88032e-06
-2.1087e-08
4.88286e-06
1.65802e-08
4.88126e-06
-1.58984e-08
4.88437e-06
1.15817e-09
4.88072e-06
-2.61135e-08
4.88516e-06
-9.6487e-09
4.88043e-06
-2.6487e-08
4.88482e-06
-1.42847e-08
4.88089e-06
-1.69896e-08
4.88558e-06
-7.38762e-09
4.88475e-06
-5.96397e-09
4.88797e-06
-1.82568e-10
4.88669e-06
-1.45035e-09
4.88891e-06
1.89735e-10
4.88691e-06
1.54748e-09
4.8857e-06
5.93863e-09
4.88111e-06
1.80913e-08
4.86962e-06
3.72948e-08
5.55908e-08
4.86193e-06
5.2708e-06
-7.55179e-10
5.2695e-06
-1.97894e-08
5.27383e-06
1.2252e-08
5.27089e-06
-1.29612e-08
5.27529e-06
-3.2444e-09
5.27085e-06
-2.16692e-08
5.27571e-06
-1.45132e-08
5.27159e-06
-2.23639e-08
5.27588e-06
-1.85773e-08
5.27491e-06
-1.60204e-08
5.27733e-06
-9.80129e-09
5.27703e-06
-5.66682e-09
5.27944e-06
-2.5891e-09
5.27927e-06
-1.285e-09
5.28011e-06
-6.52298e-10
5.27787e-06
3.78784e-09
5.27208e-06
1.17329e-08
5.25862e-06
3.15456e-08
5.25045e-06
4.54696e-08
5.67036e-08
5.24934e-06
5.69183e-06
-1.13055e-09
5.68967e-06
-1.76204e-08
5.69528e-06
6.63662e-09
5.69189e-06
-9.56594e-09
5.69636e-06
-7.72189e-09
5.69297e-06
-1.82798e-08
5.6967e-06
-1.82366e-08
5.69671e-06
-2.23722e-08
5.69786e-06
-1.9735e-08
5.6983e-06
-1.64558e-08
5.69949e-06
-1.09899e-08
5.70041e-06
-6.58638e-09
5.70148e-06
-3.66083e-09
5.70228e-06
-2.08343e-09
5.7005e-06
1.12026e-09
5.69376e-06
1.05286e-08
5.67972e-06
2.57725e-08
5.67241e-06
3.88649e-08
5.66947e-06
4.84016e-08
5.77047e-08
5.66847e-06
6.14638e-06
-1.64292e-09
6.14368e-06
-1.4917e-08
6.14988e-06
4.35136e-10
6.14736e-06
-7.04441e-09
6.15094e-06
-1.13018e-08
6.15035e-06
-1.76881e-08
6.15174e-06
-1.96312e-08
6.15298e-06
-2.36073e-08
6.15393e-06
-2.06833e-08
6.15475e-06
-1.72786e-08
6.15552e-06
-1.17599e-08
6.15684e-06
-7.90394e-09
6.15695e-06
-3.77254e-09
6.15546e-06
-5.9257e-10
6.14677e-06
9.80333e-09
6.13421e-06
2.30902e-08
6.12755e-06
3.24299e-08
6.12439e-06
4.20296e-08
6.12262e-06
5.01695e-08
5.81485e-08
6.12218e-06
6.63716e-06
-2.23632e-09
6.63448e-06
-1.22469e-08
6.64006e-06
-5.13727e-09
6.64035e-06
-7.33375e-09
6.6415e-06
-1.24587e-08
6.64265e-06
-1.88308e-08
6.64458e-06
-2.15683e-08
6.64561e-06
-2.46322e-08
6.64652e-06
-2.15991e-08
6.64722e-06
-1.79792e-08
6.6481e-06
-1.26366e-08
6.64829e-06
-8.09539e-09
6.64646e-06
-1.9418e-09
6.63751e-06
8.35787e-09
6.62537e-06
2.1942e-08
6.61918e-06
2.9283e-08
6.61563e-06
3.59807e-08
6.6139e-06
4.37627e-08
6.61264e-06
5.14247e-08
5.88352e-08
6.61195e-06
7.16704e-06
-2.84791e-09
7.16468e-06
-9.89001e-09
7.16694e-06
-7.39683e-09
7.17104e-06
-1.14283e-08
7.17246e-06
-1.3882e-08
7.17419e-06
-2.05598e-08
7.17643e-06
-2.38038e-08
7.17746e-06
-2.5662e-08
7.1783e-06
-2.24472e-08
7.17865e-06
-1.83284e-08
7.17945e-06
-1.34323e-08
7.17756e-06
-6.21028e-09
7.16834e-06
7.28502e-09
7.15591e-06
2.07903e-08
7.14994e-06
2.79064e-08
7.14644e-06
3.27873e-08
7.14436e-06
3.80556e-08
7.14269e-06
4.5433e-08
7.1413e-06
5.28207e-08
5.92293e-08
7.1409e-06
7.73926e-06
-3.50894e-09
7.73671e-06
-7.333e-09
7.73871e-06
-9.39852e-09
7.74174e-06
-1.44598e-08
7.7461e-06
-1.82392e-08
7.74846e-06
-2.29255e-08
7.75075e-06
-2.60908e-08
7.75152e-06
-2.64291e-08
7.75226e-06
-2.31849e-08
7.75171e-06
-1.77867e-08
7.74901e-06
-1.07281e-08
7.73754e-06
5.25631e-09
7.7261e-06
1.87272e-08
7.72209e-06
2.48052e-08
7.71979e-06
3.02032e-08
7.71765e-06
3.49302e-08
7.71521e-06
4.04945e-08
7.71348e-06
4.71566e-08
7.71241e-06
5.38951e-08
5.94871e-08
7.71215e-06
8.35706e-06
-4.11347e-09
8.35442e-06
-4.69225e-09
8.3561e-06
-1.10699e-08
8.35802e-06
-1.63803e-08
8.36392e-06
-2.4144e-08
8.36845e-06
-2.74519e-08
8.37075e-06
-2.8393e-08
8.3714e-06
-2.70745e-08
8.37015e-06
-2.19363e-08
8.36621e-06
-1.38542e-08
8.35393e-06
1.55349e-09
8.3439e-06
1.52907e-08
8.33991e-06
2.27102e-08
8.33797e-06
2.67525e-08
8.33635e-06
3.18226e-08
8.33394e-06
3.73371e-08
8.3317e-06
4.27318e-08
8.3301e-06
4.87646e-08
8.32919e-06
5.47999e-08
5.94196e-08
8.32926e-06
9.02427e-06
-4.73314e-09
9.02173e-06
-2.15646e-09
9.02333e-06
-1.26671e-08
9.02588e-06
-1.89296e-08
9.03171e-06
-2.99765e-08
9.03701e-06
-3.27483e-08
9.04007e-06
-3.14552e-08
9.0391e-06
-2.61015e-08
9.03323e-06
-1.60711e-08
9.02074e-06
-1.36294e-09
9.0108e-06
1.14895e-08
9.00741e-06
1.86821e-08
9.00585e-06
2.42719e-08
9.00379e-06
2.88129e-08
9.00177e-06
3.38467e-08
8.99964e-06
3.94583e-08
8.99754e-06
4.48336e-08
8.9961e-06
5.02092e-08
8.9956e-06
5.53014e-08
5.93704e-08
8.99565e-06
9.74449e-06
-5.12248e-09
9.74491e-06
-2.57817e-09
9.74418e-06
-1.19351e-08
9.74929e-06
-2.40401e-08
9.75294e-06
-3.36216e-08
9.75919e-06
-3.90038e-08
9.7612e-06
-3.3463e-08
9.75357e-06
-1.84714e-08
9.74088e-06
-3.38184e-09
9.73144e-06
8.08224e-09
9.728e-06
1.49243e-08
9.72676e-06
1.99205e-08
9.72487e-06
2.61629e-08
9.7227e-06
3.09848e-08
9.72055e-06
3.59975e-08
9.71856e-06
4.14479e-08
9.71673e-06
4.66629e-08
9.71567e-06
5.12725e-08
9.71522e-06
5.57521e-08
5.92809e-08
9.71531e-06
1.05225e-05
-5.50241e-09
1.05277e-05
-7.8656e-09
1.05263e-05
-1.05101e-08
1.05315e-05
-2.9174e-08
1.05308e-05
-3.29673e-08
1.05311e-05
-3.93363e-08
1.05215e-05
-2.37888e-08
1.05142e-05
-1.12373e-08
1.05091e-05
1.77376e-09
1.05073e-05
9.88531e-09
1.05054e-05
1.67929e-08
1.05032e-05
2.21272e-08
1.05013e-05
2.80825e-08
1.04991e-05
3.31748e-08
1.04969e-05
3.81315e-08
1.04951e-05
4.32687e-08
1.04937e-05
4.80881e-08
1.04928e-05
5.22154e-08
1.04924e-05
5.61355e-08
5.90588e-08
1.04926e-05
1.13628e-05
-6.14238e-09
1.13671e-05
-1.21246e-08
1.13728e-05
-1.62617e-08
1.13725e-05
-2.88442e-08
1.137e-05
-3.04533e-08
1.13603e-05
-2.97075e-08
1.13546e-05
-1.80629e-08
1.13495e-05
-6.0979e-09
1.13475e-05
3.757e-09
1.13462e-05
1.12308e-08
1.13442e-05
1.87404e-08
1.13419e-05
2.44305e-08
1.13398e-05
3.01908e-08
1.13377e-05
3.52354e-08
1.13357e-05
4.01656e-08
1.13341e-05
4.48993e-08
1.13329e-05
4.92375e-08
1.13321e-05
5.30342e-08
1.13319e-05
5.63689e-08
5.87121e-08
1.13322e-05
1.227e-05
-6.84839e-09
1.22747e-05
-1.68019e-08
1.22807e-05
-2.22584e-08
1.22805e-05
-2.85885e-08
1.22791e-05
-2.90761e-08
1.22688e-05
-1.9383e-08
1.22598e-05
-9.08685e-09
1.22557e-05
-1.98143e-09
1.22534e-05
6.02931e-09
1.22517e-05
1.2881e-08
1.22499e-05
2.05942e-08
1.22477e-05
2.66277e-08
1.22456e-05
3.22732e-08
1.22436e-05
3.72239e-08
1.22417e-05
4.20455e-08
1.22403e-05
4.63068e-08
1.22393e-05
5.02742e-08
1.22387e-05
5.36294e-08
1.22386e-05
5.64234e-08
5.82485e-08
1.22391e-05
1.32494e-05
-7.366e-09
1.32539e-05
-2.12829e-08
1.32582e-05
-2.65249e-08
1.32574e-05
-2.77753e-08
1.32495e-05
-2.11978e-08
1.32429e-05
-1.27484e-08
1.32379e-05
-4.16176e-09
1.32346e-05
1.4053e-09
1.3232e-05
8.62518e-09
1.323e-05
1.48674e-08
1.32281e-05
2.24516e-08
1.32261e-05
2.8682e-08
1.3224e-05
3.43055e-08
1.32222e-05
3.90946e-08
1.32205e-05
4.37421e-08
1.32192e-05
4.75586e-08
1.32184e-05
5.11346e-08
1.3218e-05
5.40085e-08
1.32181e-05
5.62928e-08
5.76532e-08
1.32187e-05
1.4307e-05
-7.64177e-09
1.43106e-05
-2.48997e-08
1.43124e-05
-2.82972e-08
1.43107e-05
-2.60628e-08
1.43038e-05
-1.43385e-08
1.42981e-05
-6.992e-09
1.42944e-05
-4.65567e-10
1.42916e-05
4.15029e-09
1.4289e-05
1.12853e-08
1.42867e-05
1.71789e-08
1.42847e-05
2.43866e-08
1.42828e-05
3.06064e-08
1.42809e-05
3.62181e-08
1.42792e-05
4.0813e-08
1.42777e-05
4.52218e-08
1.42766e-05
4.86219e-08
1.4276e-05
5.17941e-08
1.42758e-05
5.41926e-08
1.42761e-05
5.59896e-08
5.69258e-08
1.42768e-05
1.54489e-05
-7.5613e-09
1.54481e-05
-2.40793e-08
1.54461e-05
-2.62693e-08
1.54438e-05
-2.37722e-08
1.5442e-05
-1.2513e-08
1.54391e-05
-4.131e-09
1.54361e-05
2.5674e-09
1.54331e-05
7.06378e-09
1.54305e-05
1.3967e-08
1.54281e-05
1.95821e-08
1.54261e-05
2.63897e-08
1.54242e-05
3.24277e-08
1.54225e-05
3.79772e-08
1.54209e-05
4.23543e-08
1.54197e-05
4.64566e-08
1.54189e-05
4.94689e-08
1.54184e-05
5.22443e-08
1.54184e-05
5.41946e-08
1.54189e-05
5.55296e-08
5.60713e-08
1.54197e-05
1.66821e-05
-7.16288e-09
1.66802e-05
-2.22059e-08
1.66766e-05
-2.27161e-08
1.66735e-05
-2.0641e-08
1.66723e-05
-1.132e-08
1.66712e-05
-3.02454e-09
1.66689e-05
4.89169e-09
1.66661e-05
9.84639e-09
1.66633e-05
1.67263e-08
1.66609e-05
2.19921e-08
1.66589e-05
2.84396e-08
1.66572e-05
3.41473e-08
1.66556e-05
3.95629e-08
1.66542e-05
4.37107e-08
1.66532e-05
4.7437e-08
1.66526e-05
5.00837e-08
1.66524e-05
5.24702e-08
1.66526e-05
5.40106e-08
1.66532e-05
5.49202e-08
5.50932e-08
1.66542e-05
1.80137e-05
-6.49869e-09
1.80103e-05
-1.8787e-08
1.80075e-05
-1.98852e-08
1.80046e-05
-1.77286e-08
1.80029e-05
-9.6726e-09
1.80018e-05
-1.92579e-09
1.8e-05
6.66963e-09
1.79976e-05
1.23061e-08
1.79949e-05
1.93693e-08
1.79925e-05
2.4446e-08
1.79905e-05
3.04779e-08
1.79888e-05
3.57624e-08
1.79875e-05
4.09484e-08
1.79863e-05
4.48498e-08
1.79856e-05
4.81487e-08
1.79852e-05
5.04579e-08
1.79852e-05
5.24627e-08
1.79856e-05
5.36306e-08
1.79864e-05
5.41608e-08
5.39983e-08
1.79875e-05
1.94519e-05
-5.69023e-09
1.94486e-05
-1.55235e-08
1.94454e-05
-1.67147e-08
1.94427e-05
-1.4967e-08
1.94406e-05
-7.6336e-09
1.94392e-05
-4.83697e-10
1.94375e-05
8.37077e-09
1.94355e-05
1.43431e-08
1.9433e-05
2.17915e-08
1.94307e-05
2.6822e-08
1.94287e-05
3.24588e-08
1.94272e-05
3.72631e-08
1.9426e-05
4.21198e-08
1.94251e-05
4.57529e-08
1.94247e-05
4.85675e-08
1.94245e-05
5.06125e-08
1.94248e-05
5.22236e-08
1.94254e-05
5.30432e-08
1.94263e-05
5.32408e-08
5.27817e-08
1.94275e-05
2.10049e-05
-4.80204e-09
2.10024e-05
-1.29696e-08
2.09989e-05
-1.32964e-08
2.09959e-05
-1.19418e-08
2.09936e-05
-5.28549e-09
2.09918e-05
1.27526e-09
2.099e-05
1.01416e-08
2.09882e-05
1.6204e-08
2.09861e-05
2.38632e-08
2.09839e-05
2.90104e-08
2.09821e-05
3.43162e-08
2.09807e-05
3.86356e-08
2.09797e-05
4.30702e-08
2.09791e-05
4.63555e-08
2.0979e-05
4.8753e-08
2.0979e-05
5.0525e-08
2.09795e-05
5.17523e-08
2.09803e-05
5.22377e-08
2.09814e-05
5.21462e-08
5.14302e-08
2.09828e-05
2.2682e-05
-3.86453e-09
2.26795e-05
-1.04855e-08
2.26764e-05
-1.02385e-08
2.26734e-05
-8.87163e-09
2.26708e-05
-2.66828e-09
2.26687e-05
3.28505e-09
2.26669e-05
1.20151e-08
2.26651e-05
1.80062e-08
2.26633e-05
2.56398e-08
2.26614e-05
3.08595e-08
2.26598e-05
3.59693e-08
2.26586e-05
3.98393e-08
2.26579e-05
4.37952e-08
2.26576e-05
4.65938e-08
2.26576e-05
4.8757e-08
2.2658e-05
5.01731e-08
2.26587e-05
5.10477e-08
2.26597e-05
5.12174e-08
2.2661e-05
5.08738e-08
4.99412e-08
2.26625e-05
2.4493e-05
-2.95396e-09
2.4491e-05
-8.42506e-09
2.4488e-05
-7.29349e-09
2.44849e-05
-5.75541e-09
2.44821e-05
1.70706e-10
2.44799e-05
5.49612e-09
2.44779e-05
1.39561e-08
2.44762e-05
1.97524e-08
2.44746e-05
2.71808e-08
2.44731e-05
3.23531e-08
2.44718e-05
3.73216e-08
2.44708e-05
4.08246e-08
2.44704e-05
4.42138e-08
2.44704e-05
4.65748e-08
2.44707e-05
4.85048e-08
2.44713e-05
4.95642e-08
2.44722e-05
5.01093e-08
2.44734e-05
4.99916e-08
2.44749e-05
4.94232e-08
4.83134e-08
2.44765e-05
2.64487e-05
-2.06325e-09
2.64466e-05
-6.38857e-09
2.6444e-05
-4.65189e-09
2.64411e-05
-2.82215e-09
2.64383e-05
2.98092e-09
2.64359e-05
7.87739e-09
2.64339e-05
1.5927e-08
2.64322e-05
2.1432e-08
2.64309e-05
2.85183e-08
2.64297e-05
3.35125e-08
2.64287e-05
3.83053e-08
2.64281e-05
4.15058e-08
2.6428e-05
4.42924e-08
2.64282e-05
4.63436e-08
2.64288e-05
4.79444e-08
2.64296e-05
4.86888e-08
2.64308e-05
4.89344e-08
2.64322e-05
4.85645e-08
2.64339e-05
4.78e-08
4.65432e-08
2.64356e-05
2.85605e-05
-1.23517e-09
2.85587e-05
-4.55023e-09
2.85561e-05
-2.13609e-09
2.85534e-05
-6.27969e-11
2.85507e-05
5.68709e-09
2.85483e-05
1.02804e-08
2.85464e-05
1.78329e-08
2.85448e-05
2.30103e-08
2.85437e-05
2.96308e-08
2.85428e-05
3.43531e-08
2.85422e-05
3.88902e-08
2.8542e-05
4.17914e-08
2.85421e-05
4.41209e-08
2.85427e-05
4.58246e-08
2.85435e-05
4.7089e-08
2.85446e-05
4.7547e-08
2.85461e-05
4.75309e-08
2.85477e-05
4.69345e-08
2.85495e-05
4.60102e-08
4.46264e-08
2.85514e-05
3.08409e-05
-4.582e-10
3.08391e-05
-2.76647e-09
3.08368e-05
1.8117e-10
3.08343e-05
2.46913e-09
3.08318e-05
8.15015e-09
3.08295e-05
1.25479e-08
3.08278e-05
1.96047e-08
3.08263e-05
2.44313e-08
3.08255e-05
3.05009e-08
3.0825e-05
3.48705e-08
3.08248e-05
3.90749e-08
3.08249e-05
4.16547e-08
3.08254e-05
4.36539e-08
3.08262e-05
4.49962e-08
3.08274e-05
4.59349e-08
3.08288e-05
4.61244e-08
3.08304e-05
4.58926e-08
3.08323e-05
4.50961e-08
3.08342e-05
4.40468e-08
4.25658e-08
3.08363e-05
3.33034e-05
2.45301e-10
3.33018e-05
-1.21104e-09
3.32997e-05
2.35453e-09
3.32973e-05
4.80899e-09
3.32951e-05
1.03561e-08
3.32931e-05
1.45856e-08
3.32916e-05
2.11284e-08
3.32904e-05
2.56199e-08
3.32898e-05
3.10954e-08
3.32896e-05
3.50482e-08
3.32898e-05
3.88814e-08
3.32904e-05
4.10697e-08
3.32912e-05
4.28562e-08
3.32923e-05
4.38402e-08
3.32938e-05
4.44818e-08
3.32955e-05
4.44126e-08
3.32974e-05
4.401e-08
3.32994e-05
4.30509e-08
3.33016e-05
4.19069e-08
4.03654e-08
3.33038e-05
3.59625e-05
8.89913e-10
3.59611e-05
1.98761e-10
3.59592e-05
4.27423e-09
3.59571e-05
6.90123e-09
3.59552e-05
1.22192e-08
3.59535e-05
1.63324e-08
3.59523e-05
2.23048e-08
3.59514e-05
2.64806e-08
3.59511e-05
3.13672e-08
3.59513e-05
3.486e-08
3.5952e-05
3.82636e-08
3.59529e-05
4.00946e-08
3.59541e-05
4.16824e-08
3.59556e-05
4.23404e-08
3.59573e-05
4.2732e-08
3.59593e-05
4.24236e-08
3.59615e-05
4.18865e-08
3.59637e-05
4.08069e-08
3.5966e-05
3.95994e-08
3.80256e-08
3.59684e-05
3.88339e-05
1.44967e-09
3.88327e-05
1.42875e-09
3.88311e-05
5.88641e-09
3.88293e-05
8.67607e-09
3.88277e-05
1.37534e-08
3.88264e-05
1.77098e-08
3.88256e-05
2.31017e-08
3.88251e-05
2.69228e-08
3.88252e-05
3.12646e-08
3.88258e-05
3.42776e-08
3.88269e-05
3.71775e-08
3.88282e-05
3.87664e-08
3.88298e-05
4.011e-08
3.88317e-05
4.04811e-08
3.88337e-05
4.06698e-08
3.8836e-05
4.01615e-08
3.88384e-05
3.95159e-08
3.88408e-05
3.83556e-08
3.88433e-05
3.71193e-08
3.55381e-08
3.88458e-05
4.19346e-05
1.88178e-09
4.19335e-05
2.49219e-09
4.19322e-05
7.21735e-09
4.19308e-05
1.00726e-08
4.19297e-05
1.48548e-08
4.19288e-05
1.86336e-08
4.19284e-05
2.34444e-08
4.19285e-05
2.68954e-08
4.1929e-05
3.07256e-08
4.19301e-05
3.32168e-08
4.19315e-05
3.57367e-08
4.19332e-05
3.70256e-08
4.19352e-05
3.81349e-08
4.19374e-05
3.82657e-08
4.19398e-05
3.82857e-08
4.19424e-05
3.76268e-08
4.1945e-05
3.68994e-08
4.19476e-05
3.56932e-08
4.19503e-05
3.44619e-08
3.29039e-08
4.19529e-05
4.52828e-05
2.20564e-09
4.5282e-05
3.35043e-09
4.5281e-05
8.18647e-09
4.528e-05
1.10464e-08
4.52794e-05
1.5468e-08
4.5279e-05
1.90644e-08
4.52791e-05
2.32936e-08
4.52797e-05
2.63379e-08
4.52808e-05
2.96653e-08
4.52822e-05
3.17275e-08
4.52841e-05
3.38881e-08
4.52863e-05
3.48572e-08
4.52887e-05
3.57496e-08
4.52912e-05
3.56879e-08
4.52939e-05
3.55818e-08
4.52967e-05
3.48163e-08
4.52996e-05
3.40447e-08
4.53025e-05
3.28229e-08
4.53053e-05
3.16264e-08
3.01241e-08
4.53081e-05
4.88984e-05
2.40832e-09
4.88978e-05
3.94067e-09
4.88972e-05
8.77756e-09
4.88967e-05
1.15668e-08
4.88966e-05
1.55563e-08
4.88967e-05
1.89364e-08
4.88974e-05
2.25881e-08
4.88986e-05
2.52061e-08
4.89002e-05
2.80858e-08
4.89021e-05
2.97761e-08
4.89044e-05
3.15881e-08
4.8907e-05
3.22595e-08
4.89098e-05
3.29609e-08
4.89127e-05
3.2738e-08
4.89158e-05
3.25557e-08
4.89189e-05
3.17237e-08
4.8922e-05
3.09479e-08
4.8925e-05
2.97447e-08
4.89281e-05
2.86069e-08
2.71933e-08
4.8931e-05
5.28027e-05
2.46123e-09
5.28023e-05
4.2603e-09
5.28022e-05
8.90192e-09
5.28022e-05
1.16063e-08
5.28026e-05
1.5103e-08
5.28034e-05
1.82046e-08
5.28047e-05
2.129e-08
5.28064e-05
2.35031e-08
5.28085e-05
2.59608e-08
5.2811e-05
2.73038e-08
5.28137e-05
2.88222e-08
5.28168e-05
2.92192e-08
5.282e-05
2.97666e-08
5.28233e-05
2.94189e-08
5.28266e-05
2.91929e-08
5.283e-05
2.8352e-08
5.28334e-05
2.75979e-08
5.28366e-05
2.64629e-08
5.28399e-05
2.53981e-08
2.41086e-08
5.28429e-05
5.70186e-05
2.42443e-09
5.70185e-05
4.29648e-09
5.70188e-05
8.60127e-09
5.70193e-05
1.10868e-08
5.70204e-05
1.40276e-08
5.70219e-05
1.6742e-08
5.70238e-05
1.9403e-08
5.70261e-05
2.1188e-08
5.70287e-05
2.3298e-08
5.70318e-05
2.42702e-08
5.7035e-05
2.557e-08
5.70385e-05
2.57313e-08
5.70421e-05
2.6153e-08
5.70458e-05
2.5736e-08
5.70495e-05
2.54822e-08
5.70532e-05
2.46916e-08
5.70568e-05
2.39855e-08
5.70603e-05
2.29686e-08
5.70637e-05
2.20049e-08
2.08637e-08
5.70669e-05
6.15711e-05
2.23014e-09
6.15713e-05
4.08653e-09
6.15722e-05
7.73105e-09
6.15733e-05
1.0029e-08
6.1575e-05
1.23123e-08
6.15771e-05
1.46246e-08
6.15796e-05
1.69152e-08
6.15825e-05
1.82507e-08
6.15858e-05
2.0041e-08
6.15894e-05
2.06942e-08
6.15932e-05
2.17677e-08
6.15971e-05
2.18005e-08
6.16011e-05
2.20901e-08
6.16052e-05
2.16885e-08
6.16093e-05
2.14134e-08
6.16132e-05
2.07253e-08
6.16171e-05
2.00812e-08
6.16209e-05
1.92209e-08
6.16245e-05
1.83991e-08
1.74922e-08
6.16279e-05
6.64872e-05
1.84043e-09
6.64878e-05
3.44226e-09
6.64893e-05
6.27786e-09
6.64909e-05
8.40144e-09
6.64931e-05
1.01612e-08
6.64958e-05
1.18762e-08
6.64989e-05
1.38514e-08
6.65024e-05
1.47202e-08
6.65063e-05
1.61561e-08
6.65104e-05
1.6589e-08
6.65148e-05
1.74115e-08
6.65191e-05
1.74134e-08
6.65237e-05
1.75756e-08
6.65281e-05
1.7254e-08
6.65325e-05
1.69861e-08
6.65368e-05
1.6452e-08
6.6541e-05
1.59079e-08
6.6545e-05
1.5228e-08
6.65488e-05
1.45337e-08
1.37806e-08
6.65525e-05
7.17957e-05
1.34686e-09
7.17965e-05
2.55258e-09
7.17984e-05
4.46914e-09
7.18007e-05
6.10035e-09
7.18034e-05
7.45027e-09
7.18067e-05
8.49978e-09
7.18105e-05
1.00938e-08
7.18146e-05
1.06408e-08
7.18191e-05
1.16633e-08
7.18237e-05
1.19546e-08
7.18286e-05
1.25262e-08
7.18335e-05
1.25415e-08
7.18384e-05
1.26247e-08
7.18433e-05
1.23995e-08
7.18481e-05
1.21889e-08
7.18527e-05
1.18153e-08
7.18572e-05
1.14234e-08
7.18615e-05
1.09451e-08
7.18655e-05
1.04559e-08
9.9348e-09
7.18694e-05
7.75281e-05
7.75294e-05
7.75316e-05
7.75344e-05
7.75378e-05
7.75417e-05
7.75463e-05
7.75511e-05
7.75562e-05
7.75615e-05
7.7567e-05
7.75725e-05
7.7578e-05
7.75834e-05
7.75887e-05
7.75937e-05
7.75986e-05
7.76033e-05
7.76078e-05
7.7612e-05
3.77624e-06
6.53284e-08
3.68154e-06
9.47015e-08
3.58078e-06
1.00761e-07
3.48194e-06
9.88332e-08
3.38372e-06
9.82254e-08
3.28441e-06
9.93069e-08
3.18321e-06
1.01196e-07
3.08008e-06
1.03133e-07
2.97515e-06
1.04931e-07
2.86847e-06
1.06679e-07
2.76003e-06
1.08439e-07
2.64979e-06
1.10238e-07
2.53771e-06
1.12083e-07
2.42378e-06
1.13932e-07
2.30802e-06
1.15756e-07
2.19054e-06
1.17483e-07
2.07145e-06
1.19086e-07
1.95106e-06
1.20393e-07
1.82981e-06
1.2125e-07
1.70834e-06
1.2147e-07
1.58735e-06
1.20991e-07
1.468e-06
1.19353e-07
1.35243e-06
1.15565e-07
1.24307e-06
1.09365e-07
1.1433e-06
9.97655e-08
1.05687e-06
8.64283e-08
9.86879e-07
6.9995e-08
9.34492e-07
5.23865e-08
8.97735e-07
3.67577e-08
8.72463e-07
2.52717e-08
8.54707e-07
1.77558e-08
8.41629e-07
1.30784e-08
8.31227e-07
1.04023e-08
8.22248e-07
8.97819e-09
8.13875e-07
8.37376e-09
8.05446e-07
8.42905e-09
7.96606e-07
8.8395e-09
7.87276e-07
9.33031e-09
7.77458e-07
9.81789e-09
7.67192e-07
1.02658e-08
7.56534e-07
1.06581e-08
7.45642e-07
1.08917e-08
7.34603e-07
1.10394e-08
7.23537e-07
1.10661e-08
7.1249e-07
1.10466e-08
7.016e-07
1.08903e-08
6.90849e-07
1.0751e-08
6.80283e-07
1.05658e-08
6.69885e-07
1.03978e-08
6.59718e-07
1.01674e-08
6.49767e-07
9.95122e-09
6.40062e-07
9.70486e-09
6.30598e-07
9.46349e-09
6.21367e-07
9.23132e-09
6.12385e-07
8.98197e-09
6.03635e-07
8.75011e-09
5.95113e-07
8.52187e-09
5.86802e-07
8.31084e-09
5.78724e-07
8.07783e-09
5.70864e-07
7.85991e-09
5.63194e-07
7.67029e-09
5.55735e-07
7.4589e-09
5.48453e-07
7.28208e-09
5.41394e-07
7.05873e-09
5.34489e-07
6.90533e-09
5.27801e-07
6.68841e-09
5.21246e-07
6.55462e-09
5.14873e-07
6.37311e-09
5.08591e-07
6.28164e-09
5.02461e-07
6.13035e-09
4.96424e-07
6.03696e-09
4.90522e-07
5.90225e-09
4.84715e-07
5.80699e-09
4.79068e-07
5.64719e-09
4.73516e-07
5.55142e-09
4.68107e-07
5.40894e-09
4.62758e-07
5.34894e-09
4.57527e-07
5.23115e-09
4.52329e-07
5.19855e-09
4.47234e-07
5.09456e-09
4.42191e-07
5.04296e-09
4.37301e-07
4.88962e-09
4.32477e-07
4.82467e-09
4.27805e-07
4.67205e-09
4.23128e-07
4.67634e-09
4.18589e-07
4.53959e-09
4.14027e-07
4.562e-09
4.09636e-07
4.3908e-09
4.05263e-07
4.37334e-09
4.01086e-07
4.17652e-09
3.96899e-07
4.18671e-09
3.92849e-07
4.05063e-09
3.88793e-07
4.05591e-09
3.84907e-07
3.88584e-09
3.81011e-07
3.89638e-09
3.77278e-07
3.73303e-09
3.73452e-07
3.82571e-09
3.69786e-07
3.66584e-09
3.65856e-07
3.9296e-09
4.54736e-09
4.16603e-06
5.90299e-08
4.16969e-06
9.10383e-08
4.16325e-06
1.07197e-07
4.15264e-06
1.09445e-07
4.14164e-06
1.09226e-07
4.12972e-06
1.1123e-07
4.11546e-06
1.15448e-07
4.09825e-06
1.20353e-07
4.078e-06
1.25179e-07
4.05473e-06
1.29947e-07
4.02836e-06
1.34813e-07
3.99874e-06
1.39856e-07
3.96569e-06
1.45131e-07
3.92904e-06
1.50583e-07
3.88859e-06
1.56202e-07
3.84419e-06
1.61882e-07
3.79571e-06
1.67568e-07
3.74305e-06
1.73054e-07
3.68617e-06
1.78127e-07
3.62516e-06
1.82485e-07
3.56018e-06
1.85969e-07
3.49153e-06
1.88003e-07
3.42009e-06
1.87008e-07
3.34693e-06
1.82526e-07
3.27338e-06
1.73306e-07
3.20143e-06
1.5838e-07
3.1332e-06
1.38226e-07
3.07015e-06
1.15437e-07
3.01318e-06
9.37313e-08
2.96186e-06
7.65849e-08
2.91462e-06
6.50041e-08
2.87001e-06
5.76886e-08
2.82714e-06
5.32722e-08
2.78536e-06
5.07583e-08
2.74447e-06
4.92575e-08
2.70418e-06
4.87171e-08
2.6643e-06
4.87276e-08
2.62478e-06
4.88475e-08
2.58557e-06
4.90233e-08
2.54666e-06
4.91838e-08
2.50802e-06
4.92914e-08
2.46975e-06
4.91624e-08
2.43185e-06
4.89393e-08
2.39442e-06
4.84965e-08
2.35751e-06
4.79618e-08
2.32125e-06
4.71496e-08
2.28561e-06
4.6389e-08
2.25065e-06
4.55279e-08
2.21634e-06
4.47085e-08
2.18277e-06
4.37302e-08
2.14992e-06
4.28047e-08
2.11786e-06
4.17665e-08
2.08656e-06
4.07624e-08
2.05608e-06
3.97112e-08
2.02638e-06
3.86824e-08
1.99748e-06
3.76498e-08
1.96932e-06
3.6684e-08
1.94192e-06
3.57072e-08
1.91524e-06
3.4762e-08
1.88928e-06
3.38136e-08
1.86397e-06
3.29868e-08
1.83934e-06
3.20863e-08
1.8153e-06
3.13173e-08
1.79194e-06
3.04234e-08
1.76911e-06
2.97319e-08
1.74692e-06
2.88786e-08
1.7252e-06
2.82755e-08
1.70404e-06
2.75311e-08
1.68326e-06
2.70612e-08
1.66299e-06
2.64067e-08
1.64304e-06
2.59876e-08
1.62355e-06
2.53921e-08
1.60435e-06
2.50016e-08
1.58563e-06
2.43696e-08
1.56719e-06
2.39946e-08
1.54921e-06
2.33831e-08
1.53146e-06
2.30974e-08
1.51413e-06
2.25619e-08
1.49693e-06
2.23983e-08
1.48012e-06
2.19086e-08
1.46344e-06
2.1721e-08
1.44724e-06
2.10877e-08
1.43121e-06
2.08602e-08
1.41567e-06
2.02131e-08
1.40016e-06
2.01808e-08
1.38511e-06
1.95927e-08
1.37002e-06
1.96473e-08
1.35549e-06
1.8923e-08
1.34098e-06
1.88861e-08
1.32709e-06
1.80678e-08
1.3131e-06
1.81701e-08
1.29972e-06
1.74355e-08
1.28621e-06
1.75695e-08
1.2734e-06
1.66944e-08
1.2604e-06
1.68937e-08
1.24814e-06
1.59888e-08
1.23555e-06
1.64212e-08
1.22369e-06
1.55262e-08
1.21136e-06
1.6257e-08
1.73819e-08
4.49852e-06
6.1236e-08
4.50343e-06
8.61274e-08
4.50679e-06
1.0384e-07
4.50608e-06
1.10148e-07
4.50443e-06
1.10881e-07
4.50371e-06
1.11946e-07
4.50365e-06
1.15507e-07
4.50346e-06
1.2055e-07
4.50265e-06
1.25989e-07
4.5011e-06
1.31493e-07
4.49878e-06
1.3713e-07
4.49563e-06
1.43009e-07
4.49153e-06
1.49231e-07
4.48634e-06
1.55778e-07
4.47988e-06
1.62656e-07
4.47201e-06
1.69755e-07
4.46261e-06
1.76971e-07
4.4515e-06
1.84163e-07
4.43855e-06
1.91078e-07
4.42364e-06
1.97391e-07
4.40676e-06
2.02851e-07
4.38787e-06
2.06894e-07
4.36684e-06
2.08032e-07
4.344e-06
2.0537e-07
4.31932e-06
1.97988e-07
4.29315e-06
1.84544e-07
4.26601e-06
1.65373e-07
4.23859e-06
1.42853e-07
4.21184e-06
1.20484e-07
4.18642e-06
1.02005e-07
4.162e-06
8.94172e-08
4.13796e-06
8.17294e-08
4.11382e-06
7.74142e-08
4.08937e-06
7.52094e-08
4.06445e-06
7.41743e-08
4.03906e-06
7.41151e-08
4.01309e-06
7.46895e-08
3.98656e-06
7.53836e-08
3.95938e-06
7.61973e-08
3.93157e-06
7.69987e-08
3.90308e-06
7.77758e-08
3.874e-06
7.8247e-08
3.8443e-06
7.86368e-08
3.81407e-06
7.87331e-08
3.78331e-06
7.87155e-08
3.75217e-06
7.8296e-08
3.72059e-06
7.79657e-08
3.68866e-06
7.74535e-08
3.65636e-06
7.70154e-08
3.62379e-06
7.6292e-08
3.59093e-06
7.56698e-08
3.55792e-06
7.4779e-08
3.52471e-06
7.39697e-08
3.49145e-06
7.29683e-08
3.4581e-06
7.20314e-08
3.42479e-06
7.09638e-08
3.39142e-06
7.00505e-08
3.35815e-06
6.89762e-08
3.3249e-06
6.80157e-08
3.2918e-06
6.69185e-08
3.25874e-06
6.6045e-08
3.22589e-06
6.49365e-08
3.19314e-06
6.40609e-08
3.16069e-06
6.28825e-08
3.12837e-06
6.20464e-08
3.09641e-06
6.0837e-08
3.06463e-06
6.00574e-08
3.03322e-06
5.89377e-08
3.00198e-06
5.83084e-08
2.97114e-06
5.72454e-08
2.94045e-06
5.66799e-08
2.91018e-06
5.56562e-08
2.88008e-06
5.51023e-08
2.85047e-06
5.39783e-08
2.82103e-06
5.34351e-08
2.79212e-06
5.22927e-08
2.76336e-06
5.18583e-08
2.73514e-06
5.07861e-08
2.70697e-06
5.05603e-08
2.67935e-06
4.95314e-08
2.65179e-06
4.92805e-08
2.62489e-06
4.79885e-08
2.59808e-06
4.76748e-08
2.57197e-06
4.63213e-08
2.54583e-06
4.63211e-08
2.52039e-06
4.50362e-08
2.49481e-06
4.52233e-08
2.47006e-06
4.36712e-08
2.44522e-06
4.37253e-08
2.42134e-06
4.1953e-08
2.39719e-06
4.23147e-08
2.37403e-06
4.05983e-08
2.35055e-06
4.10446e-08
2.32821e-06
3.9042e-08
2.30548e-06
3.96204e-08
2.28392e-06
3.75464e-08
2.26189e-06
3.84492e-08
2.24095e-06
3.64738e-08
2.2195e-06
3.77037e-08
3.87212e-08
4.85892e-06
6.42491e-08
4.86254e-06
8.2505e-08
4.86704e-06
9.93465e-08
4.86841e-06
1.08774e-07
4.86773e-06
1.11561e-07
4.86739e-06
1.12289e-07
4.8679e-06
1.14995e-07
4.86916e-06
1.19292e-07
4.87059e-06
1.24553e-07
4.8719e-06
1.30191e-07
4.87302e-06
1.36004e-07
4.87403e-06
1.41995e-07
4.87496e-06
1.48301e-07
4.8758e-06
1.54945e-07
4.87649e-06
1.61966e-07
4.87701e-06
1.69236e-07
4.87735e-06
1.76627e-07
4.87748e-06
1.84029e-07
4.87736e-06
1.91202e-07
4.87697e-06
1.97776e-07
4.87634e-06
2.03482e-07
4.87547e-06
2.07771e-07
4.87402e-06
2.09477e-07
4.87191e-06
2.07479e-07
4.86886e-06
2.01036e-07
4.86448e-06
1.88924e-07
4.85847e-06
1.71389e-07
4.85099e-06
1.50328e-07
4.84258e-06
1.28899e-07
4.83408e-06
1.10504e-07
4.82581e-06
9.76843e-08
4.8176e-06
8.99429e-08
4.80916e-06
8.58472e-08
4.80045e-06
8.39223e-08
4.79129e-06
8.33398e-08
4.78179e-06
8.36108e-08
4.77194e-06
8.45427e-08
4.76172e-06
8.55965e-08
4.75105e-06
8.68736e-08
4.73991e-06
8.81418e-08
4.72821e-06
8.94701e-08
4.71599e-06
9.04689e-08
4.70317e-06
9.14597e-08
4.68978e-06
9.21234e-08
4.67576e-06
9.27267e-08
4.66121e-06
9.28503e-08
4.64604e-06
9.31397e-08
4.63032e-06
9.317e-08
4.61396e-06
9.33736e-08
4.59707e-06
9.31802e-08
4.57952e-06
9.32196e-08
4.56146e-06
9.28395e-08
4.54275e-06
9.26819e-08
4.52356e-06
9.21593e-08
4.50374e-06
9.18482e-08
4.48349e-06
9.12138e-08
4.46263e-06
9.09161e-08
4.44135e-06
9.0249e-08
4.4195e-06
8.98749e-08
4.39724e-06
8.91767e-08
4.3744e-06
8.88837e-08
4.35118e-06
8.81559e-08
4.32741e-06
8.78331e-08
4.3033e-06
8.69927e-08
4.27866e-06
8.66878e-08
4.25373e-06
8.57588e-08
4.22831e-06
8.5483e-08
4.20265e-06
8.45954e-08
4.17647e-06
8.44835e-08
4.15013e-06
8.35884e-08
4.12328e-06
8.35345e-08
4.09631e-06
8.26236e-08
4.06887e-06
8.25444e-08
4.04141e-06
8.14379e-08
4.0135e-06
8.13396e-08
3.98565e-06
8.01497e-08
3.95734e-06
8.01616e-08
3.92914e-06
7.8993e-08
3.90043e-06
7.92628e-08
3.87188e-06
7.80837e-08
3.84285e-06
7.83072e-08
3.81412e-06
7.67223e-08
3.78496e-06
7.68345e-08
3.75618e-06
7.51038e-08
3.72691e-06
7.55906e-08
3.69808e-06
7.38704e-08
3.6687e-06
7.46019e-08
3.63992e-06
7.24506e-08
3.61065e-06
7.29915e-08
3.58216e-06
7.04453e-08
3.55306e-06
7.14108e-08
3.5248e-06
6.8863e-08
3.49592e-06
6.99231e-08
3.46802e-06
6.69396e-08
3.43953e-06
6.81158e-08
3.41203e-06
6.50474e-08
3.38394e-06
6.65324e-08
3.35676e-06
6.36526e-08
3.32902e-06
6.54424e-08
6.60762e-08
5.24868e-06
6.49088e-08
5.25106e-06
8.01167e-08
5.25533e-06
9.50829e-08
5.25775e-06
1.06354e-07
5.25814e-06
1.11171e-07
5.25777e-06
1.12652e-07
5.25795e-06
1.14816e-07
5.25906e-06
1.1819e-07
5.26069e-06
1.22918e-07
5.26239e-06
1.28497e-07
5.26395e-06
1.34436e-07
5.26549e-06
1.40458e-07
5.26703e-06
1.4676e-07
5.26865e-06
1.53326e-07
5.27033e-06
1.60291e-07
5.2721e-06
1.67456e-07
5.27399e-06
1.74737e-07
5.27606e-06
1.81962e-07
5.27828e-06
1.88986e-07
5.28075e-06
1.953e-07
5.2835e-06
2.00738e-07
5.28658e-06
2.04683e-07
5.2897e-06
2.06362e-07
5.29272e-06
2.04459e-07
5.29531e-06
1.98443e-07