/*--------------------------------*- C++ -*----------------------------------*\
| =========                 |                                                 |
| \\      /  F ield         | OpenFOAM: The Open Source CFD Toolbox           |
|  \\    /   O peration     | Version:  v2106                                 |
|   \\  /    A nd           | Website:  www.openfoam.com                      |
|    \\/     M anipulation  |                                                 |
\*---------------------------------------------------------------------------*/
FoamFile
{
    version     2.0;
    format      ascii;
    arch        "LSB;label=32;scalar=64";
    class       volVectorField;
    location    "1.9";
    object      U;
}
// * * * * * * * * * * * * * * * * * * * * * * * * * * * * * * * * * * * * * //

dimensions      [0 1 -1 0 0 0 0];

internalField   nonuniform List<vector> 
4800
(
(0.960606 -2.03444e-05 0)
(1.03863 -0.000190229 0)
(0.964433 0.000223787 0)
(1.03523 -0.000202918 0)
(0.967851 6.56117e-05 0)
(1.03184 -0.000477229 0)
(0.970948 -2.90648e-05 0)
(1.02844 -0.000655535 0)
(0.973687 -8.84142e-05 0)
(1.02513 -0.00059806 0)
(0.976365 0.000143165 0)
(1.02216 -0.000331912 0)
(0.979069 0.000414639 0)
(1.01953 -0.000223339 0)
(0.98142 0.000392958 0)
(1.01681 -0.000383228 0)
(0.983024 0.000202395 0)
(1.01367 -0.00042299 0)
(0.983829 0.000324297 0)
(1.01038 0.000540904 0)
(0.982939 -8.63439e-05 0)
(1.01439 -0.000162462 0)
(0.987074 0.000192618 0)
(1.01125 -0.00018083 0)
(0.99037 3.72428e-05 0)
(1.00847 -0.000488395 0)
(0.992865 -5.176e-05 0)
(1.00607 -0.000682622 0)
(0.994625 -0.000103791 0)
(1.00403 -0.000657465 0)
(0.99604 0.000139697 0)
(1.00252 -0.000404984 0)
(0.99727 0.000403318 0)
(1.00145 -0.000307988 0)
(0.998041 0.000405527 0)
(1.00035 -0.00043504 0)
(0.998076 0.000323443 0)
(0.998878 -0.00016103 0)
(0.997551 0.0011235 0)
(0.997376 0.00170009 0)
(0.99606 4.85185e-06 0)
(1.00256 -0.000238347 0)
(0.997601 0.000246006 0)
(1.00181 -0.000238462 0)
(0.998707 9.12685e-05 0)
(1.00118 -0.000450524 0)
(0.999288 -4.95412e-05 0)
(1.00067 -0.000572847 0)
(0.99947 -0.000153808 0)
(1.00019 -0.000455918 0)
(0.999557 -2.60617e-05 0)
(0.999934 -0.000170378 0)
(0.999683 0.00013111 0)
(0.999844 -7.8151e-05 0)
(0.999611 0.00010177 0)
(0.99949 -3.05746e-05 0)
(0.999095 0.00015135 0)
(0.998687 0.000564027 0)
(0.998264 0.00127331 0)
(0.997764 0.00217055 0)
(0.999528 -2.15903e-05 0)
(1.00014 -0.000238403 0)
(0.99991 0.000216948 0)
(1.00034 -0.000224527 0)
(1.00025 3.58177e-05 0)
(1.00036 -0.000462596 0)
(1.00032 -0.000123268 0)
(1.00029 -0.000538962 0)
(1.00019 -0.000250808 0)
(1.0001 -0.000410314 0)
(1.00008 -0.000114488 0)
(0.999993 -0.000159059 0)
(1.00005 4.33486e-05 0)
(0.999966 -6.38224e-05 0)
(0.999898 3.26358e-05 0)
(0.99966 1.37383e-05 0)
(0.999399 0.000195378 0)
(0.99898 0.000689807 0)
(0.998655 0.00133242 0)
(0.998238 0.00245577 0)
(1.00015 6.73762e-06 0)
(0.999788 -0.000227882 0)
(1.00032 0.000179281 0)
(1.00017 -0.000193432 0)
(1.00054 -5.27155e-06 0)
(1.00029 -0.000347047 0)
(1.00054 -0.000214642 0)
(1.00028 -0.000410114 0)
(1.00039 -0.000330098 0)
(1.00014 -0.000333405 0)
(1.00026 -0.000212104 0)
(1.00006 -0.000148889 0)
(1.00022 -5.85702e-05 0)
(1.00003 -3.52901e-05 0)
(1.00006 -1.87061e-05 0)
(0.999753 0.000103466 0)
(0.999612 0.000326812 0)
(0.999187 0.000961341 0)
(0.999036 0.00183575 0)
(0.998593 0.00287648 0)
(1.00035 -2.00921e-05 0)
(0.999645 -0.000202734 0)
(1.00048 0.000106066 0)
(1.00005 -0.000130491 0)
(1.00068 -9.85172e-05 0)
(1.00019 -0.000288313 0)
(1.00067 -0.000292812 0)
(1.0002 -0.00039271 0)
(1.00052 -0.000389613 0)
(1.00009 -0.000340662 0)
(1.00039 -0.000264703 0)
(1.00003 -0.000137309 0)
(1.00033 -9.50567e-05 0)
(1 -3.28503e-05 0)
(1.00017 -1.90577e-05 0)
(0.999771 0.000205444 0)
(0.999803 0.000638774 0)
(0.999376 0.00148372 0)
(0.999331 0.00225261 0)
(0.998814 0.00301762 0)
(1.00046 -3.33995e-06 0)
(0.99956 -0.000189603 0)
(1.00058 5.23789e-05 0)
(0.999958 -0.000106472 0)
(1.00076 -0.000128584 0)
(1.00012 -0.000291174 0)
(1.00075 -0.000298181 0)
(1.00014 -0.000428066 0)
(1.0006 -0.0003876 0)
(1.00005 -0.000382792 0)
(1.00047 -0.000245434 0)
(0.999998 -0.000196167 0)
(1.0004 -9.27554e-05 0)
(0.999981 -7.57403e-05 0)
(1.00024 0.000119726 0)
(0.999842 0.000508467 0)
(1.00003 0.00117918 0)
(0.999535 0.00183599 0)
(0.999545 0.00241024 0)
(0.99899 0.00301353 0)
(1.00044 -3.00419e-05 0)
(0.999585 -0.000127429 0)
(1.00057 -4.87434e-05 0)
(0.999964 -6.4875e-05 0)
(1.00075 -0.000177282 0)
(1.00012 -0.000259712 0)
(1.00074 -0.000357203 0)
(1.00015 -0.000424512 0)
(1.0006 -0.00042963 0)
(1.00007 -0.000363117 0)
(1.00048 -0.000295915 0)
(1.00003 -0.000189136 0)
(1.00041 -9.46155e-05 0)
(1.00003 5.83753e-05 0)
(1.00034 0.000460306 0)
(0.999993 0.000996589 0)
(1.00016 0.0014484 0)
(0.999682 0.00191229 0)
(0.999698 0.00240118 0)
(0.99919 0.00295428 0)
(1.00033 -1.76035e-05 0)
(0.999699 -0.000130808 0)
(1.00048 -6.90361e-05 0)
(1.00006 -0.000142281 0)
(1.00066 -0.00016621 0)
(1.0002 -0.000309339 0)
(1.00066 -0.000359562 0)
(1.00022 -0.000472358 0)
(1.00054 -0.000418269 0)
(1.00016 -0.000402518 0)
(1.00044 -0.000286153 0)
(1.00011 -0.000206822 0)
(1.00039 1.29805e-05 0)
(1.00016 0.000399912 0)
(1.00041 0.000882707 0)
(1.00013 0.00121063 0)
(1.00022 0.00150504 0)
(0.999856 0.00191059 0)
(0.999834 0.00240209 0)
(0.999424 0.00294277 0)
(1.00019 -3.6118e-05 0)
(0.999839 -8.96657e-05 0)
(1.00036 -0.000106694 0)
(1.00018 -0.000163798 0)
(1.00055 -0.000241055 0)
(1.0003 -0.00030959 0)
(1.00057 -0.000418543 0)
(1.00032 -0.000459438 0)
(1.00048 -0.00046283 0)
(1.00025 -0.000371839 0)
(1.0004 -0.000309418 0)
(1.00022 -6.16971e-05 0)
(1.00043 0.000334956 0)
(1.00033 0.00075105 0)
(1.00044 0.00104708 0)
(1.00025 0.00126691 0)
(1.00028 0.00154486 0)
(1.00004 0.00194899 0)
(0.999977 0.00244132 0)
(0.999667 0.00296509 0)
(1.00008 -3.92979e-05 0)
(0.999934 -6.30088e-05 0)
(1.00027 -0.000114121 0)
(1.00026 -0.000201843 0)
(1.00047 -0.000294307 0)
(1.00037 -0.000384491 0)
(1.0005 -0.000439008 0)
(1.00039 -0.000482709 0)
(1.00043 -0.000436391 0)
(1.00033 -0.000352484 0)
(1.00039 -0.000144129 0)
(1.00036 0.000279821 0)
(1.00047 0.000649049 0)
(1.00043 0.000852743 0)
(1.00046 0.0010441 0)
(1.00036 0.00128839 0)
(1.00036 0.00159927 0)
(1.00023 0.00200554 0)
(1.00014 0.00248455 0)
(0.999902 0.00298356 0)
(1.00003 -3.83696e-05 0)
(0.999987 -4.57302e-05 0)
(1.00021 -0.000141356 0)
(1.00029 -0.000237547 0)
(1.00042 -0.000374979 0)
(1.0004 -0.000478312 0)
(1.00047 -0.000491976 0)
(1.00043 -0.000472526 0)
(1.00042 -0.000393493 0)
(1.0004 -0.00021003 0)
(1.00046 0.000196701 0)
(1.00046 0.000494376 0)
(1.0005 0.000703127 0)
(1.0005 0.000845523 0)
(1.00051 0.00105868 0)
(1.00048 0.00134448 0)
(1.00047 0.00168248 0)
(1.00041 0.0020811 0)
(1.00032 0.00253407 0)
(1.00013 0.00300132 0)
(1.00001 -6.34901e-05 0)
(0.999997 6.26001e-06 0)
(1.00018 -0.000173546 0)
(1.00029 -0.000244457 0)
(1.00039 -0.000476429 0)
(1.00042 -0.000532445 0)
(1.00047 -0.000567836 0)
(1.00046 -0.000425142 0)
(1.00045 -0.000201998 0)
(1.00049 0.000143059 0)
(1.00051 0.000374519 0)
(1.00051 0.000528228 0)
(1.00054 0.000700405 0)
(1.00056 0.000881756 0)
(1.00058 0.00112222 0)
(1.00059 0.00142547 0)
(1.00061 0.00177172 0)
(1.00058 0.00215754 0)
(1.00051 0.00258353 0)
(1.00034 0.00301633 0)
(1.00001 -4.52392e-05 0)
(1 -6.87894e-05 0)
(1.00016 -9.28754e-05 0)
(1.00028 -0.000360972 0)
(1.00037 -0.000445793 0)
(1.00042 -0.000635194 0)
(1.00048 -0.000497185 0)
(1.00052 -0.000301031 0)
(1.00053 4.15531e-05 0)
(1.00054 0.00025 0)
(1.00054 0.000392673 0)
(1.00056 0.000534694 0)
(1.00059 0.000735018 0)
(1.00064 0.000956322 0)
(1.00068 0.00121225 0)
(1.00071 0.0015107 0)
(1.00075 0.00184865 0)
(1.00075 0.00221761 0)
(1.0007 0.00261544 0)
(1.00055 0.00301263 0)
(1.00001 -6.01875e-05 0)
(1.00001 -0.000115745 0)
(1.00015 -0.000149421 0)
(1.00026 -0.000374087 0)
(1.00036 -0.00044619 0)
(1.00043 -0.00054778 0)
(1.00054 -0.000359452 0)
(1.00058 -0.000126641 0)
(1.00057 5.00712e-05 0)
(1.00058 0.000206078 0)
(1.00059 0.000390145 0)
(1.00062 0.000565513 0)
(1.00067 0.000785135 0)
(1.00073 0.00101893 0)
(1.00078 0.00128024 0)
(1.00084 0.00156867 0)
(1.0009 0.00189528 0)
(1.00093 0.00224648 0)
(1.0009 0.00261933 0)
(1.00076 0.00298626 0)
(1.00001 -6.6006e-05 0)
(1.00001 -0.000151293 0)
(1.00014 -0.000236269 0)
(1.00025 -0.000359718 0)
(1.00036 -0.000439737 0)
(1.00046 -0.000378296 0)
(1.00058 -0.00020704 0)
(1.00063 -7.19493e-05 0)
(1.00062 8.88065e-05 0)
(1.00064 0.000250273 0)
(1.00065 0.000455509 0)
(1.00069 0.000653211 0)
(1.00075 0.000872868 0)
(1.00082 0.00110453 0)
(1.0009 0.00136648 0)
(1.00098 0.00164725 0)
(1.00106 0.00195959 0)
(1.00111 0.00228973 0)
(1.0011 0.00263694 0)
(1.00097 0.00297623 0)
(1.00001 -7.25263e-05 0)
(1.00001 -0.000206134 0)
(1.00014 -0.000305687 0)
(1.00025 -0.00036503 0)
(1.00038 -0.000365934 0)
(1.0005 -0.000245445 0)
(1.00063 -0.000101151 0)
(1.00068 3.79041e-06 0)
(1.00068 0.000152603 0)
(1.00071 0.00030346 0)
(1.00073 0.000512439 0)
(1.00077 0.000718101 0)
(1.00084 0.000935569 0)
(1.00093 0.00116257 0)
(1.00102 0.00142149 0)
(1.00112 0.00169705 0)
(1.00123 0.00199557 0)
(1.0013 0.00230494 0)
(1.00131 0.0026279 0)
(1.00119 0.00294312 0)
(1.00001 -7.13055e-05 0)
(1.00001 -0.000259344 0)
(1.00015 -0.000333839 0)
(1.00027 -0.000367753 0)
(1.00042 -0.000245438 0)
(1.00055 -0.000131699 0)
(1.00068 -3.14747e-05 0)
(1.00073 5.37801e-05 0)
(1.00074 0.000199858 0)
(1.00078 0.000344649 0)
(1.00081 0.000546105 0)
(1.00087 0.000751682 0)
(1.00094 0.000971612 0)
(1.00105 0.00119793 0)
(1.00116 0.00145591 0)
(1.00128 0.00172803 0)
(1.00141 0.00201622 0)
(1.0015 0.00230817 0)
(1.00152 0.00260909 0)
(1.00141 0.00290224 0)
(1.00001 -7.6103e-05 0)
(1.00002 -0.000270644 0)
(1.00016 -0.00033573 0)
(1.00031 -0.00033805 0)
(1.00048 -0.000179853 0)
(1.0006 -6.8199e-05 0)
(1.00073 2.26198e-05 0)
(1.00079 0.000105969 0)
(1.00081 0.000254114 0)
(1.00086 0.000394591 0)
(1.00091 0.000588622 0)
(1.00097 0.000796352 0)
(1.00106 0.00102283 0)
(1.00118 0.00124968 0)
(1.00131 0.00150323 0)
(1.00145 0.00176715 0)
(1.00159 0.00204287 0)
(1.0017 0.00231706 0)
(1.00174 0.00259539 0)
(1.00164 0.00286514 0)
(1.00001 -7.32059e-05 0)
(1.00002 -0.000256035 0)
(1.00019 -0.000297387 0)
(1.00036 -0.000283063 0)
(1.00053 -0.000164336 0)
(1.00065 -5.82124e-05 0)
(1.00078 6.17802e-05 0)
(1.00085 0.000157898 0)
(1.00088 0.000309271 0)
(1.00094 0.000448735 0)
(1.00101 0.000637698 0)
(1.00109 0.00084363 0)
(1.00119 0.00107214 0)
(1.00132 0.00129592 0)
(1.00147 0.00154058 0)
(1.00163 0.00179405 0)
(1.00178 0.00205704 0)
(1.00191 0.00231513 0)
(1.00196 0.00257254 0)
(1.00187 0.00281982 0)
(1.00001 -6.73736e-05 0)
(1.00003 -0.000228017 0)
(1.00021 -0.000255009 0)
(1.0004 -0.000243513 0)
(1.00059 -0.000147103 0)
(1.00072 -3.91003e-05 0)
(1.00085 9.72843e-05 0)
(1.00092 0.000203853 0)
(1.00096 0.000362608 0)
(1.00103 0.000505293 0)
(1.00111 0.000688871 0)
(1.00121 0.000887847 0)
(1.00132 0.00111385 0)
(1.00147 0.00133443 0)
(1.00163 0.00156983 0)
(1.00181 0.00181194 0)
(1.00198 0.00206175 0)
(1.00212 0.00230398 0)
(1.00218 0.00254151 0)
(1.00209 0.00276722 0)
(1.00001 -6.29151e-05 0)
(1.00004 -0.000187737 0)
(1.00023 -0.000213898 0)
(1.00043 -0.000207888 0)
(1.00064 -0.000120213 0)
(1.00078 -1.94459e-05 0)
(1.00091 0.00012284 0)
(1.00099 0.000239201 0)
(1.00105 0.000407303 0)
(1.00112 0.000555499 0)
(1.00122 0.000735873 0)
(1.00133 0.000927123 0)
(1.00146 0.00114867 0)
(1.00162 0.00136552 0)
(1.0018 0.00159222 0)
(1.00199 0.00182116 0)
(1.00217 0.00205573 0)
(1.00232 0.00228178 0)
(1.00239 0.00250076 0)
(1.00231 0.00270687 0)
(1.00001 -5.36411e-05 0)
(1.00005 -0.000154915 0)
(1.00025 -0.000175054 0)
(1.00047 -0.000172181 0)
(1.00069 -9.15797e-05 0)
(1.00084 4.53679e-06 0)
(1.00098 0.000152315 0)
(1.00107 0.000275461 0)
(1.00113 0.000450659 0)
(1.00122 0.000602818 0)
(1.00133 0.000782134 0)
(1.00146 0.000965127 0)
(1.0016 0.00117925 0)
(1.00177 0.00138933 0)
(1.00197 0.00160684 0)
(1.00217 0.00182201 0)
(1.00237 0.00204049 0)
(1.00253 0.00225067 0)
(1.0026 0.00245321 0)
(1.00253 0.00264198 0)
(1.00001 -4.36372e-05 0)
(1.00005 -0.000128748 0)
(1.00027 -0.000138365 0)
(1.0005 -0.000132468 0)
(1.00074 -5.46745e-05 0)
(1.0009 3.51206e-05 0)
(1.00106 0.000183512 0)
(1.00116 0.000307903 0)
(1.00123 0.000486699 0)
(1.00132 0.000642769 0)
(1.00144 0.000822522 0)
(1.00159 0.000998911 0)
(1.00175 0.00120362 0)
(1.00193 0.00140569 0)
(1.00214 0.00161326 0)
(1.00236 0.00181524 0)
(1.00256 0.00201801 0)
(1.00273 0.00221179 0)
(1.00281 0.00239863 0)
(1.00274 0.00257088 0)
(1.00001 -3.47651e-05 0)
(1.00006 -0.000103645 0)
(1.00029 -0.000102952 0)
(1.00053 -9.18247e-05 0)
(1.00078 -1.67489e-05 0)
(1.00097 6.73539e-05 0)
(1.00113 0.000214599 0)
(1.00124 0.000340083 0)
(1.00133 0.000518999 0)
(1.00142 0.000678361 0)
(1.00156 0.000857699 0)
(1.00172 0.00102791 0)
(1.00189 0.00122192 0)
(1.00209 0.0014141 0)
(1.00231 0.00161087 0)
(1.00254 0.00179904 0)
(1.00275 0.0019867 0)
(1.00293 0.00216377 0)
(1.00301 0.00233468 0)
(1.00294 0.00249114 0)
(1.00001 -2.53467e-05 0)
(1.00007 -8.10199e-05 0)
(1.0003 -7.09286e-05 0)
(1.00056 -5.39194e-05 0)
(1.00083 2.33776e-05 0)
(1.00103 0.000104031 0)
(1.00121 0.000248649 0)
(1.00133 0.000372034 0)
(1.00143 0.000547737 0)
(1.00153 0.000706229 0)
(1.00168 0.000884217 0)
(1.00185 0.00104817 0)
(1.00204 0.00123173 0)
(1.00225 0.00141253 0)
(1.00248 0.00159801 0)
(1.00272 0.00177282 0)
(1.00294 0.00194575 0)
(1.00312 0.00210757 0)
(1.00321 0.00226286 0)
(1.00314 0.00240456 0)
(1.00001 -1.65569e-05 0)
(1.00008 -6.01283e-05 0)
(1.00032 -4.01754e-05 0)
(1.00059 -1.73232e-05 0)
(1.00087 6.32228e-05 0)
(1.00109 0.000141911 0)
(1.00128 0.000282371 0)
(1.00142 0.00040206 0)
(1.00153 0.000572473 0)
(1.00165 0.000727706 0)
(1.0018 0.000902623 0)
(1.00198 0.00106104 0)
(1.00218 0.00123388 0)
(1.00241 0.00140215 0)
(1.00264 0.00157492 0)
(1.00289 0.00173662 0)
(1.00312 0.00189477 0)
(1.00331 0.00204188 0)
(1.0034 0.00218283 0)
(1.00333 0.00231017 0)
(1.00001 -8.60083e-06 0)
(1.00008 -3.98239e-05 0)
(1.00034 -1.06362e-05 0)
(1.00062 1.67179e-05 0)
(1.00092 9.92979e-05 0)
(1.00115 0.000177854 0)
(1.00135 0.000314151 0)
(1.0015 0.000430364 0)
(1.00163 0.000592444 0)
(1.00176 0.00074289 0)
(1.00192 0.000911857 0)
(1.00211 0.00106437 0)
(1.00233 0.00122641 0)
(1.00256 0.00138173 0)
(1.00281 0.00154102 0)
(1.00306 0.00168973 0)
(1.0033 0.00183445 0)
(1.00349 0.00196707 0)
(1.00358 0.00209536 0)
(1.00352 0.00220919 0)
(1.00001 -8.4676e-07 0)
(1.00009 -2.14298e-05 0)
(1.00035 1.57253e-05 0)
(1.00064 4.79514e-05 0)
(1.00096 0.000131581 0)
(1.00121 0.000210551 0)
(1.00143 0.000342527 0)
(1.00159 0.00045498 0)
(1.00174 0.000607739 0)
(1.00187 0.000750414 0)
(1.00204 0.000911781 0)
(1.00224 0.00105685 0)
(1.00247 0.00120853 0)
(1.00271 0.00135134 0)
(1.00297 0.00149734 0)
(1.00322 0.00163295 0)
(1.00347 0.0017655 0)
(1.00366 0.00188441 0)
(1.00375 0.00200038 0)
(1.00369 0.00210194 0)
(1.00001 5.77712e-06 0)
(1.00009 -4.94452e-06 0)
(1.00037 4.03052e-05 0)
(1.00067 7.6479e-05 0)
(1.001 0.000159846 0)
(1.00126 0.000238588 0)
(1.0015 0.000364152 0)
(1.00167 0.000474335 0)
(1.00184 0.00061713 0)
(1.00198 0.000751445 0)
(1.00216 0.000903178 0)
(1.00237 0.00103995 0)
(1.0026 0.00118138 0)
(1.00286 0.00131148 0)
(1.00312 0.00144469 0)
(1.00338 0.00156602 0)
(1.00363 0.00168667 0)
(1.00382 0.0017924 0)
(1.00392 0.00189628 0)
(1.00385 0.00198624 0)
(1.00001 1.16847e-05 0)
(1.0001 9.43883e-06 0)
(1.00038 6.06949e-05 0)
(1.0007 0.0001018 0)
(1.00104 0.000183578 0)
(1.00132 0.000262464 0)
(1.00157 0.0003808 0)
(1.00175 0.00048712 0)
(1.00193 0.000620072 0)
(1.00209 0.000744004 0)
(1.00228 0.000884962 0)
(1.00249 0.00101156 0)
(1.00274 0.00114332 0)
(1.00299 0.00126071 0)
(1.00327 0.00138207 0)
(1.00353 0.00148953 0)
(1.00378 0.0015984 0)
(1.00398 0.00169214 0)
(1.00407 0.00178497 0)
(1.00401 0.00186403 0)
(1.00001 1.70105e-05 0)
(1.00011 2.13541e-05 0)
(1.0004 7.8146e-05 0)
(1.00072 0.000121898 0)
(1.00108 0.00020256 0)
(1.00137 0.000279213 0)
(1.00164 0.000390046 0)
(1.00183 0.000491363 0)
(1.00203 0.00061535 0)
(1.0022 0.000728457 0)
(1.0024 0.000858294 0)
(1.00261 0.000972675 0)
(1.00286 0.00109421 0)
(1.00313 0.00119892 0)
(1.0034 0.00130859 0)
(1.00367 0.00140305 0)
(1.00392 0.00150021 0)
(1.00412 0.0015825 0)
(1.00422 0.00166526 0)
(1.00415 0.001734 0)
(1.00001 2.00893e-05 0)
(1.00011 3.24516e-05 0)
(1.00041 9.18927e-05 0)
(1.00075 0.000137172 0)
(1.00112 0.000214392 0)
(1.00142 0.000290235 0)
(1.0017 0.000390766 0)
(1.00191 0.000486842 0)
(1.00211 0.000600942 0)
(1.00229 0.00070383 0)
(1.0025 0.000821647 0)
(1.00273 0.000923592 0)
(1.00298 0.00103358 0)
(1.00325 0.00112642 0)
(1.00353 0.00122446 0)
(1.0038 0.00130699 0)
(1.00405 0.00139282 0)
(1.00425 0.00146417 0)
(1.00435 0.00153727 0)
(1.00428 0.00159666 0)
(1.00001 2.34276e-05 0)
(1.00012 3.95135e-05 0)
(1.00043 0.000101304 0)
(1.00077 0.00014695 0)
(1.00115 0.00021937 0)
(1.00147 0.000292527 0)
(1.00176 0.000384353 0)
(1.00198 0.0004718 0)
(1.00219 0.000576272 0)
(1.00239 0.000667683 0)
(1.0026 0.000773466 0)
(1.00283 0.000862598 0)
(1.00309 0.000961021 0)
(1.00336 0.00104185 0)
(1.00364 0.0011293 0)
(1.00392 0.00120029 0)
(1.00417 0.00127604 0)
(1.00437 0.00133687 0)
(1.00446 0.00140099 0)
(1.0044 0.00145181 0)
(1.00001 2.41039e-05 0)
(1.00012 4.5164e-05 0)
(1.00044 0.000105285 0)
(1.00079 0.000150581 0)
(1.00119 0.000216532 0)
(1.00151 0.000285828 0)
(1.00182 0.000367465 0)
(1.00205 0.000446682 0)
(1.00227 0.000539203 0)
(1.00247 0.000620393 0)
(1.00269 0.000713744 0)
(1.00293 0.000790599 0)
(1.00319 0.000877688 0)
(1.00346 0.00094655 0)
(1.00375 0.00102369 0)
(1.00403 0.00108381 0)
(1.00428 0.00114975 0)
(1.00448 0.00120115 0)
(1.00457 0.00125628 0)
(1.0045 0.00129955 0)
(1.00001 2.43619e-05 0)
(1.00012 4.67264e-05 0)
(1.00045 0.000104275 0)
(1.0008 0.000146945 0)
(1.00122 0.000205901 0)
(1.00155 0.000269449 0)
(1.00187 0.00034058 0)
(1.00211 0.000409445 0)
(1.00234 0.000491032 0)
(1.00255 0.00055987 0)
(1.00277 0.000642554 0)
(1.00301 0.000706159 0)
(1.00328 0.000782405 0)
(1.00356 0.00083972 0)
(1.00384 0.000906269 0)
(1.00412 0.000956893 0)
(1.00437 0.00101281 0)
(1.00457 0.00105635 0)
(1.00466 0.0011025 0)
(1.00459 0.0011394 0)
(1.00001 2.35638e-05 0)
(1.00013 4.54943e-05 0)
(1.00046 9.79906e-05 0)
(1.00082 0.000137278 0)
(1.00124 0.000186646 0)
(1.00159 0.000241816 0)
(1.00191 0.000304143 0)
(1.00216 0.000359369 0)
(1.00239 0.000430848 0)
(1.00261 0.000486019 0)
(1.00284 0.000557688 0)
(1.00309 0.00060871 0)
(1.00335 0.000672822 0)
(1.00363 0.000719516 0)
(1.00392 0.000774695 0)
(1.0042 0.000816445 0)
(1.00446 0.000862355 0)
(1.00465 0.000898222 0)
(1.00475 0.000935885 0)
(1.00467 0.000966276 0)
(1.00001 2.00867e-05 0)
(1.00013 4.18059e-05 0)
(1.00047 8.35302e-05 0)
(1.00083 0.000120529 0)
(1.00126 0.000157646 0)
(1.00162 0.000203544 0)
(1.00194 0.000255994 0)
(1.00221 0.00029774 0)
(1.00244 0.000355105 0)
(1.00267 0.000397524 0)
(1.0029 0.000454287 0)
(1.00315 0.000494302 0)
(1.00342 0.00054353 0)
(1.0037 0.000580404 0)
(1.00399 0.00062242 0)
(1.00427 0.000655753 0)
(1.00452 0.000690439 0)
(1.00472 0.000719036 0)
(1.00481 0.00074715 0)
(1.00474 0.000771333 0)
(1.00001 1.71258e-05 0)
(1.00013 3.48695e-05 0)
(1.00048 6.82813e-05 0)
(1.00084 0.000101158 0)
(1.00128 0.000134134 0)
(1.00165 0.000167352 0)
(1.00197 0.000215664 0)
(1.00224 0.000247826 0)
(1.00248 0.000295971 0)
(1.00271 0.000330122 0)
(1.00295 0.000376776 0)
(1.0032 0.000410499 0)
(1.00347 0.000450115 0)
(1.00375 0.000481163 0)
(1.00404 0.000514856 0)
(1.00432 0.000543201 0)
(1.00458 0.000571431 0)
(1.00477 0.000595926 0)
(1.00486 0.000619179 0)
(1.00479 0.000639943 0)
(1.00002 7.30931e-06 0)
(1.00013 1.64047e-05 0)
(1.00049 3.04972e-05 0)
(1.00085 4.64512e-05 0)
(1.00129 6.30682e-05 0)
(1.00167 7.73442e-05 0)
(1.002 0.000101458 0)
(1.00227 0.00011661 0)
(1.00252 0.000139668 0)
(1.00276 0.00015596 0)
(1.003 0.00017815 0)
(1.00325 0.000194734 0)
(1.00352 0.000213701 0)
(1.00381 0.000228846 0)
(1.0041 0.00024516 0)
(1.00438 0.000258907 0)
(1.00463 0.000272953 0)
(1.00483 0.000284843 0)
(1.00492 0.000296768 0)
(1.00485 0.000306875 0)
(0.984324 0.00203609 0)
(0.960217 0.00330649 0)
(0.935944 0.00368166 0)
(0.91117 0.00363197 0)
(0.8859 0.00353637 0)
(0.860194 0.00350466 0)
(0.834138 0.00351016 0)
(0.807725 0.00351027 0)
(0.780929 0.00349231 0)
(0.753672 0.00345998 0)
(0.725957 0.00341931 0)
(0.697775 0.00337483 0)
(0.669124 0.00332703 0)
(0.639981 0.00327636 0)
(0.61036 0.00322201 0)
(0.580271 0.00316113 0)
(0.549755 0.00309605 0)
(0.518819 0.00302167 0)
(0.487615 0.00293118 0)
(0.456242 0.00282248 0)
(0.424918 0.00269846 0)
(0.393752 0.00254303 0)
(0.363252 0.00234227 0)
(0.33396 0.00206947 0)
(0.306656 0.00166694 0)
(0.282422 0.00115525 0)
(0.26219 0.000564231 0)
(0.246657 5.25647e-05 0)
(0.235632 -0.000289255 0)
(0.228035 -0.000451953 0)
(0.222657 -0.000504809 0)
(0.218747 -0.000482077 0)
(0.215735 -0.000447392 0)
(0.21323 -0.000399707 0)
(0.211006 -0.00034422 0)
(0.208847 -0.000286852 0)
(0.206624 -0.000233905 0)
(0.20428 -0.000188572 0)
(0.201815 -0.000150177 0)
(0.199221 -0.000117548 0)
(0.196525 -9.03363e-05 0)
(0.193741 -6.91298e-05 0)
(0.190913 -5.19027e-05 0)
(0.188057 -3.83597e-05 0)
(0.185207 -2.69421e-05 0)
(0.182374 -1.84672e-05 0)
(0.179584 -1.09054e-05 0)
(0.176831 -4.8204e-06 0)
(0.174129 7.85416e-07 0)
(0.171474 4.98081e-06 0)
(0.168881 8.81768e-06 0)
(0.166342 1.19807e-05 0)
(0.163875 1.4748e-05 0)
(0.161457 1.71987e-05 0)
(0.159118 1.88138e-05 0)
(0.156819 2.03047e-05 0)
(0.154606 2.12234e-05 0)
(0.152418 2.21072e-05 0)
(0.150325 2.2264e-05 0)
(0.148247 2.24607e-05 0)
(0.14627 2.24316e-05 0)
(0.14429 2.21442e-05 0)
(0.142422 2.18241e-05 0)
(0.140538 2.10881e-05 0)
(0.138775 2.06679e-05 0)
(0.136982 1.97062e-05 0)
(0.135318 1.92304e-05 0)
(0.133605 1.8386e-05 0)
(0.132024 1.80187e-05 0)
(0.130368 1.7243e-05 0)
(0.12886 1.66459e-05 0)
(0.127254 1.58901e-05 0)
(0.125816 1.51932e-05 0)
(0.124259 1.43652e-05 0)
(0.122903 1.3816e-05 0)
(0.121394 1.32187e-05 0)
(0.120112 1.27939e-05 0)
(0.118634 1.22162e-05 0)
(0.117413 1.18414e-05 0)
(0.115948 1.14069e-05 0)
(0.11479 1.10179e-05 0)
(0.113345 1.04782e-05 0)
(0.112273 1.00438e-05 0)
(0.110851 9.49301e-06 0)
(0.109862 9.35083e-06 0)
(0.108436 8.87986e-06 0)
(0.107521 8.86106e-06 0)
(0.106082 8.37109e-06 0)
(0.105264 8.11035e-06 0)
(0.103819 7.54607e-06 0)
(0.103118 7.35562e-06 0)
(0.101638 7.22731e-06 0)
(0.101053 6.94769e-06 0)
(0.0995182 6.75738e-06 0)
(0.0990821 6.42584e-06 0)
(0.0974678 6.3769e-06 0)
(0.0971959 6.2567e-06 0)
(0.0954445 6.51196e-06 0)
(0.0953644 7.1206e-06 0)
(0.0932796 9.73944e-06 0)
(0.99685 0.00389017 0)
(0.995935 0.0058788 0)
(0.994709 0.00660378 0)
(0.993075 0.00655457 0)
(0.99094 0.00636851 0)
(0.988219 0.00630212 0)
(0.984959 0.00634355 0)
(0.981109 0.00641453 0)
(0.976658 0.00647468 0)
(0.971503 0.00652213 0)
(0.965633 0.00656448 0)
(0.958985 0.00660845 0)
(0.95155 0.00665643 0)
(0.943243 0.00670552 0)
(0.934062 0.00675399 0)
(0.923931 0.0067971 0)
(0.912854 0.006833 0)
(0.900751 0.00685587 0)
(0.887658 0.00686004 0)
(0.87354 0.00683493 0)
(0.858458 0.00678051 0)
(0.842388 0.00668157 0)
(0.825506 0.00651094 0)
(0.80803 0.00623903 0)
(0.790281 0.00580184 0)
(0.772758 0.00517879 0)
(0.756015 0.00438731 0)
(0.74054 0.00354028 0)
(0.726552 0.00275319 0)
(0.713869 0.00213178 0)
(0.702141 0.00169484 0)
(0.69108 0.0014022 0)
(0.680551 0.00119837 0)
(0.670336 0.00104592 0)
(0.660443 0.000940047 0)
(0.650712 0.000874743 0)
(0.641145 0.000834469 0)
(0.631642 0.000805017 0)
(0.622271 0.000781305 0)
(0.612923 0.000760244 0)
(0.603692 0.000740506 0)
(0.594492 0.00071761 0)
(0.585422 0.000694029 0)
(0.576402 0.000667646 0)
(0.567546 0.000641095 0)
(0.558786 0.000611024 0)
(0.550218 0.000583704 0)
(0.541765 0.000556107 0)
(0.533511 0.000530461 0)
(0.525381 0.000503807 0)
(0.517473 0.000479051 0)
(0.509689 0.000454142 0)
(0.502155 0.000430716 0)
(0.494734 0.000408523 0)
(0.487597 0.000387291 0)
(0.48054 0.000367597 0)
(0.473793 0.00034925 0)
(0.467082 0.00033213 0)
(0.460712 0.000315509 0)
(0.454329 0.000300103 0)
(0.448314 0.000286433 0)
(0.442234 0.00027266 0)
(0.436549 0.000260638 0)
(0.430754 0.000247769 0)
(0.425382 0.000237544 0)
(0.419854 0.000225975 0)
(0.414775 0.000217331 0)
(0.40948 0.000207632 0)
(0.404661 0.000200882 0)
(0.399557 0.000192613 0)
(0.394974 0.000186441 0)
(0.390024 0.000179129 0)
(0.385665 0.000173281 0)
(0.380854 0.000165677 0)
(0.376722 0.000160071 0)
(0.372038 0.00015323 0)
(0.368137 0.000148969 0)
(0.363554 0.000143244 0)
(0.359861 0.000139962 0)
(0.355329 0.000134661 0)
(0.351839 0.000130949 0)
(0.347354 0.00012468 0)
(0.344112 0.00012098 0)
(0.339679 0.000115206 0)
(0.336695 0.000113269 0)
(0.33226 0.000108044 0)
(0.329516 0.000106498 0)
(0.32504 0.000100612 0)
(0.322594 9.8519e-05 0)
(0.318084 9.24795e-05 0)
(0.315982 9.11978e-05 0)
(0.311363 8.63469e-05 0)
(0.309637 8.50975e-05 0)
(0.304851 7.98041e-05 0)
(0.303584 7.88728e-05 0)
(0.298562 7.38812e-05 0)
(0.297813 7.45626e-05 0)
(0.292438 6.94603e-05 0)
(0.292272 7.33665e-05 0)
(0.286338 8.11953e-05 0)
(0.997308 0.00344938 0)
(0.996809 0.00474168 0)
(0.99651 0.00548805 0)
(0.996381 0.00561966 0)
(0.996378 0.00552007 0)
(0.996341 0.00547332 0)
(0.996324 0.00555185 0)
(0.99625 0.00570363 0)
(0.996147 0.00587377 0)
(0.995896 0.00603971 0)
(0.995532 0.00620109 0)
(0.994963 0.00636148 0)
(0.994224 0.00652837 0)
(0.993212 0.0066972 0)
(0.991962 0.00686974 0)
(0.990376 0.00704022 0)
(0.988491 0.00720619 0)
(0.986198 0.0073614 0)
(0.983544 0.00749905 0)
(0.980431 0.00760511 0)
(0.976903 0.00767647 0)
(0.972853 0.00769719 0)
(0.968359 0.00762939 0)
(0.963367 0.00743732 0)
(0.958016 0.00706853 0)
(0.952315 0.00647531 0)
(0.94652 0.00568442 0)
(0.940663 0.0047869 0)
(0.934985 0.0039157 0)
(0.929365 0.00320721 0)
(0.923917 0.00272378 0)
(0.918394 0.00241507 0)
(0.912995 0.00222484 0)
(0.907437 0.00209806 0)
(0.901973 0.00201977 0)
(0.896308 0.00198062 0)
(0.890693 0.00196277 0)
(0.884807 0.00194847 0)
(0.878955 0.00193508 0)
(0.872793 0.00191988 0)
(0.866663 0.00190167 0)
(0.860216 0.00187462 0)
(0.85381 0.0018443 0)
(0.847092 0.00180666 0)
(0.840438 0.00176587 0)
(0.833503 0.0017163 0)
(0.826653 0.0016684 0)
(0.819536 0.00161772 0)
(0.812524 0.00156888 0)
(0.805248 0.00151557 0)
(0.798113 0.00146461 0)
(0.790708 0.00141052 0)
(0.783506 0.00135861 0)
(0.77601 0.00130539 0)
(0.768796 0.00125404 0)
(0.761248 0.00120301 0)
(0.75406 0.00115524 0)
(0.746478 0.00110739 0)
(0.739349 0.00106193 0)
(0.731757 0.00101676 0)
(0.724705 0.00097599 0)
(0.717128 0.000933904 0)
(0.710173 0.000896256 0)
(0.70264 0.000856267 0)
(0.69581 0.000822088 0)
(0.688344 0.000784774 0)
(0.681668 0.000754389 0)
(0.674282 0.000721408 0)
(0.667769 0.00069563 0)
(0.660457 0.000666387 0)
(0.654128 0.000643583 0)
(0.646872 0.00061718 0)
(0.640746 0.000596455 0)
(0.633549 0.000570942 0)
(0.627652 0.000551901 0)
(0.620513 0.00052794 0)
(0.614869 0.000511605 0)
(0.607776 0.000490443 0)
(0.602392 0.000477798 0)
(0.595302 0.000458647 0)
(0.59019 0.000446468 0)
(0.583092 0.000425618 0)
(0.578309 0.000413455 0)
(0.571204 0.000393405 0)
(0.566776 0.000385463 0)
(0.559614 0.000367505 0)
(0.555544 0.000361658 0)
(0.548273 0.000342024 0)
(0.544631 0.000335228 0)
(0.537244 0.000315113 0)
(0.534105 0.000311404 0)
(0.526502 0.000292954 0)
(0.523928 0.000290224 0)
(0.516037 0.000270314 0)
(0.514132 0.000269201 0)
(0.505873 0.000249425 0)
(0.50471 0.000251926 0)
(0.495985 0.000233214 0)
(0.495606 0.000238277 0)
(0.486268 0.000246232 0)
(0.997834 0.00354527 0)
(0.99727 0.00456998 0)
(0.996907 0.00531707 0)
(0.996708 0.00566474 0)
(0.996786 0.0057267 0)
(0.996878 0.00572556 0)
(0.997123 0.00578051 0)
(0.99733 0.00590414 0)
(0.99766 0.00606234 0)
(0.997895 0.00623201 0)
(0.998219 0.00639964 0)
(0.998433 0.00656503 0)
(0.99873 0.00673329 0)
(0.99889 0.00690809 0)
(0.99912 0.00708777 0)
(0.999197 0.00727019 0)
(0.999346 0.00744911 0)
(0.999319 0.00762246 0)
(0.999366 0.00777718 0)
(0.999227 0.00790436 0)
(0.999158 0.00799245 0)
(0.998858 0.00803026 0)
(0.998612 0.00797042 0)
(0.998078 0.00777781 0)
(0.997574 0.00741213 0)
(0.996707 0.00683928 0)
(0.995852 0.00607893 0)
(0.994566 0.00521746 0)
(0.993318 0.00437558 0)
(0.991639 0.00367387 0)
(0.990094 0.00318035 0)
(0.988151 0.00286756 0)
(0.986463 0.002679 0)
(0.984395 0.00256396 0)
(0.982653 0.00249708 0)
(0.980513 0.00246036 0)
(0.97872 0.00244047 0)
(0.976459 0.0024226 0)
(0.974539 0.00240923 0)
(0.972091 0.00239541 0)
(0.969992 0.00238199 0)
(0.967325 0.00235973 0)
(0.965004 0.00233612 0)
(0.962086 0.00230469 0)
(0.959528 0.00227143 0)
(0.956362 0.00222732 0)
(0.953564 0.00218722 0)
(0.950147 0.00214313 0)
(0.947123 0.00210303 0)
(0.943448 0.00205597 0)
(0.940202 0.00201361 0)
(0.936255 0.00196456 0)
(0.932804 0.00191921 0)
(0.928579 0.00186924 0)
(0.924948 0.0018226 0)
(0.920449 0.00177253 0)
(0.916657 0.00172825 0)
(0.911888 0.00168004 0)
(0.907953 0.0016364 0)
(0.902918 0.00158938 0)
(0.89884 0.00154915 0)
(0.893552 0.00150363 0)
(0.889334 0.00146471 0)
(0.883805 0.00141914 0)
(0.879457 0.00138216 0)
(0.873704 0.00133731 0)
(0.869247 0.00130235 0)
(0.863279 0.00126042 0)
(0.858737 0.00122953 0)
(0.852547 0.00118982 0)
(0.847952 0.0011613 0)
(0.841532 0.00112365 0)
(0.836916 0.00109651 0)
(0.830274 0.00105841 0)
(0.825677 0.00103254 0)
(0.818822 0.000995266 0)
(0.814278 0.000972027 0)
(0.807205 0.000936941 0)
(0.80274 0.000918198 0)
(0.79542 0.000885214 0)
(0.79107 0.000867165 0)
(0.7835 0.000831174 0)
(0.779327 0.000812774 0)
(0.771516 0.000776847 0)
(0.767563 0.00076386 0)
(0.759487 0.000730347 0)
(0.755786 0.000721038 0)
(0.74741 0.00068495 0)
(0.744044 0.00067443 0)
(0.735365 0.000636424 0)
(0.732426 0.000631098 0)
(0.723367 0.000595065 0)
(0.720932 0.000591504 0)
(0.711438 0.00055294 0)
(0.709612 0.00055166 0)
(0.699632 0.000513674 0)
(0.698482 0.000516164 0)
(0.687961 0.0004817 0)
(0.68753 0.000485244 0)
(0.676363 0.000484928 0)
(0.998231 0.00376377 0)
(0.99758 0.00458678 0)
(0.997203 0.00525786 0)
(0.996868 0.0056755 0)
(0.996961 0.00582911 0)
(0.996989 0.00585665 0)
(0.997321 0.00587411 0)
(0.997493 0.00593732 0)
(0.997926 0.00605168 0)
(0.99813 0.00620051 0)