/*--------------------------------*- C++ -*----------------------------------*\
| =========                 |                                                 |
| \\      /  F ield         | OpenFOAM: The Open Source CFD Toolbox           |
|  \\    /   O peration     | Version:  v2106                                 |
|   \\  /    A nd           | Website:  www.openfoam.com                      |
|    \\/     M anipulation  |                                                 |
\*---------------------------------------------------------------------------*/
FoamFile
{
    version     2.0;
    format      ascii;
    arch        "LSB;label=32;scalar=64";
    class       volScalarField;
    location    "1.2";
    object      p;
}
// * * * * * * * * * * * * * * * * * * * * * * * * * * * * * * * * * * * * * //

dimensions      [0 2 -2 0 0 0 0];

internalField   nonuniform List<scalar> 
4800
(
-9.28511e-11
-1.12811e-05
-2.77855e-05
-0.000111569
-0.000203078
-0.000315547
-0.000374199
-0.000395551
-0.000405027
-0.000413084
-0.000399031
-0.00034496
-0.00024635
-0.000117213
7.29659e-05
0.000316676
0.000657937
0.00114297
0.0016815
0.00235771
1.28988e-05
-1.41813e-05
-2.55397e-05
-0.000113803
-0.000199519
-0.00031813
-0.000369292
-0.000397323
-0.000399543
-0.000414327
-0.000393725
-0.000346402
-0.000243306
-0.000121686
7.60442e-05
0.000313223
0.000653572
0.0010877
0.00150408
0.00199018
1.63631e-05
-1.61708e-05
-2.43743e-05
-0.000114615
-0.00019795
-0.000319126
-0.000367216
-0.000397167
-0.000397313
-0.000413147
-0.000391934
-0.000344149
-0.000243226
-0.000122216
7.13155e-05
0.000300391
0.000610053
0.000977915
0.00131428
0.0017107
2.6472e-05
-1.82822e-05
-2.32503e-05
-0.000114838
-0.000197264
-0.000318697
-0.000366645
-0.0003945
-0.000398372
-0.000407629
-0.00039333
-0.000340722
-0.000240141
-0.000122163
5.88542e-05
0.000278823
0.0005408
0.000840649
0.00111673
0.00147482
3.37025e-05
-1.99439e-05
-2.29221e-05
-0.000114107
-0.000197643
-0.000316893
-0.000367763
-0.000390322
-0.000401026
-0.000402804
-0.000387307
-0.000336051
-0.000241365
-0.000125823
3.80604e-05
0.000235168
0.000445457
0.000666509
0.000921901
0.00126483
4.27829e-05
-2.0002e-05
-2.37676e-05
-0.000112058
-0.000199584
-0.000313447
-0.000368756
-0.000387213
-0.00039648
-0.000397634
-0.000383357
-0.000333282
-0.000243939
-0.000133825
6.946e-06
0.000159518
0.000297117
0.000493393
0.000746737
0.00107595
5.11837e-05
-1.81356e-05
-2.64296e-05
-0.000108573
-0.000203235
-0.000310109
-0.000366842
-0.000384727
-0.000391912
-0.000391424
-0.000380041
-0.000331901
-0.000248065
-0.000152486
-5.78574e-05
2.78338e-05
0.000155077
0.000348561
0.000591187
0.000895095
5.95343e-05
-1.3693e-05
-2.9468e-05
-0.000106044
-0.00020376
-0.00031003
-0.00036354
-0.000378142
-0.000386821
-0.000386528
-0.000377737
-0.000331974
-0.000262648
-0.000208476
-0.000169606
-8.84133e-05
4.16365e-05
0.000221977
0.00043604
0.000708999
6.69491e-05
-6.5723e-06
-3.09384e-05
-0.000106746
-0.000201655
-0.00030757
-0.000361721
-0.000369938
-0.000379994
-0.00038347
-0.000379672
-0.000348413
-0.000308124
-0.000300203
-0.000264192
-0.000177252
-5.67172e-05
9.16798e-05
0.000272007
0.000515612
7.49807e-05
7.49985e-07
-2.9533e-05
-0.000108357
-0.00020175
-0.000299387
-0.0003591
-0.000363845
-0.000372997
-0.000382452
-0.000388682
-0.000388754
-0.000394113
-0.000380933
-0.000334063
-0.000254204
-0.000160433
-4.78248e-05
9.80913e-05
0.000315984
8.25766e-05
8.42504e-06
-2.48336e-05
-0.000106062
-0.000204428
-0.000292863
-0.00035094
-0.000359748
-0.000368392
-0.000391186
-0.000428303
-0.000463234
-0.000464165
-0.00043873
-0.000395244
-0.000338784
-0.000275081
-0.000197394
-8.29784e-05
0.00011259
8.97874e-05
1.64868e-05
-1.81614e-05
-9.78371e-05
-0.000206846
-0.000290483
-0.000342775
-0.000354963
-0.000376987
-0.000425264
-0.00048841
-0.000519639
-0.000512192
-0.000489949
-0.000464903
-0.000435315
-0.000401868
-0.000354844
-0.00026784
-9.15534e-05
9.79033e-05
2.49936e-05
-1.12909e-05
-8.35699e-05
-0.000200852
-0.00029495
-0.000341997
-0.000354753
-0.000402469
-0.000485348
-0.000541031
-0.00056074
-0.000557144
-0.000549494
-0.00054657
-0.000544116
-0.000537908
-0.000517758
-0.000454801
-0.000294697
0.000105021
3.55973e-05
-4.42502e-06
-6.79724e-05
-0.000184474
-0.000297705
-0.000358799
-0.000380691
-0.000441348
-0.000525105
-0.000581637
-0.000601958
-0.000608431
-0.000619125
-0.000638959
-0.000661482
-0.000680279
-0.000684687
-0.000642416
-0.000496629
0.000114305
4.80925e-05
5.02258e-06
-5.52413e-05
-0.000166563
-0.000291977
-0.000390027
-0.000437252
-0.000483357
-0.000552831
-0.000614451
-0.000646203
-0.000667494
-0.000697453
-0.000738683
-0.000784715
-0.000827298
-0.000854144
-0.000830471
-0.000697615
0.000123767
6.13423e-05
1.92596e-05
-4.4392e-05
-0.000158964
-0.000293144
-0.000416859
-0.000486069
-0.000530458
-0.000591278
-0.000654456
-0.00069621
-0.000733169
-0.000781889
-0.000844118
-0.000913115
-0.000978857
-0.00102629
-0.00101941
-0.000898114
0.000137959
7.51323e-05
3.25956e-05
-3.21788e-05
-0.000163709
-0.000307078
-0.000438079
-0.000525528
-0.000580627
-0.000640685
-0.00070362
-0.000753516
-0.000804895
-0.000871806
-0.000954914
-0.00104667
-0.00113473
-0.00120128
-0.00120935
-0.00109808
0.00015538
9.13661e-05
4.14519e-05
-1.99561e-05
-0.000169405
-0.000336084
-0.000466715
-0.000559397
-0.000625518
-0.000690784
-0.000758881
-0.00081789
-0.000883252
-0.00096791
-0.00107161
-0.00118554
-0.00129449
-0.00137863
-0.00140003
-0.00129737
0.000174907
0.000111694
4.7933e-05
-1.83747e-05
-0.00017577
-0.00036673
-0.00050554
-0.000596221
-0.000666786
-0.000740582
-0.000818464
-0.000889738
-0.000969279
-0.00107113
-0.00119453
-0.00132929
-0.0014576
-0.00155761
-0.00159098
-0.00149568
0.000196444
0.000135778
5.39651e-05
-2.95046e-05
-0.000189282
-0.000393429
-0.000544632
-0.000638011
-0.000711892
-0.000793932
-0.000882982
-0.000968011
-0.00106277
-0.00118134
-0.00132326
-0.00147714
-0.00162348
-0.0017379
-0.0017817
-0.00169259
0.00022033
0.000160869
5.91803e-05
-4.80923e-05
-0.000212589
-0.00041995
-0.00058235
-0.000682621
-0.000761197
-0.000851492
-0.000952735
-0.0010522
-0.00116281
-0.00129783
-0.00145686
-0.00162826
-0.00179124
-0.00191917
-0.00197213
-0.00188805
0.000245643
0.000185356
6.30702e-05
-6.97402e-05
-0.000242638
-0.000452426
-0.000622452
-0.000729797
-0.000813743
-0.000912521
-0.00102729
-0.00114257
-0.00126917
-0.00142024
-0.00159506
-0.00178213
-0.00195999
-0.00210049
-0.00216172
-0.00208154
0.000270984
0.00020824
6.53773e-05
-9.35138e-05
-0.000275775
-0.000487602
-0.000665895
-0.000782063
-0.000871146
-0.000977443
-0.00110629
-0.00123853
-0.00138144
-0.00154819
-0.00173762
-0.0019385
-0.00212915
-0.00228083
-0.00234973
-0.00227266
0.0002952
0.000228798
6.66342e-05
-0.000118482
-0.000311764
-0.000526024
-0.000713008
-0.000839548
-0.000935616
-0.00104811
-0.00118917
-0.00133894
-0.00149867
-0.00168074
-0.00188385
-0.00209674
-0.00229839
-0.00245962
-0.00253537
-0.00246107
0.000317228
0.000246162
6.74237e-05
-0.000143696
-0.00035093
-0.000567804
-0.000762904
-0.00090197
-0.00100666
-0.00112561
-0.00127672
-0.00144273
-0.00162003
-0.00181724
-0.00203264
-0.00225607
-0.00246728
-0.00263642
-0.00271792
-0.0026462
0.000336265
0.000259787
6.72015e-05
-0.000168094
-0.000393432
-0.000613568
-0.000815282
-0.000968633
-0.00108412
-0.00121002
-0.00136987
-0.00154981
-0.00174453
-0.00195652
-0.00218326
-0.00241568
-0.00263474
-0.00281045
-0.00289668
-0.00282728
0.000351869
0.000269228
6.49783e-05
-0.000191546
-0.000436813
-0.00066416
-0.00087074
-0.00103788
-0.00116773
-0.00130158
-0.00146894
-0.00165998
-0.00187016
-0.00209673
-0.00233484
-0.00257588
-0.00280081
-0.00298159
-0.00307158
-0.00300399
0.000363645
0.000274541
5.99588e-05
-0.000214601
-0.000480365
-0.000718904
-0.000930799
-0.00110905
-0.00125476
-0.00139901
-0.00157437
-0.00177533
-0.0019966
-0.00223607
-0.00248541
-0.00273476
-0.00296486
-0.00314914
-0.00324191
-0.00317561
0.000371116
0.000275562
5.12814e-05
-0.000238577
-0.000523375
-0.000775519
-0.000995319
-0.00118347
-0.00134412
-0.00150054
-0.00168366
-0.00189411
-0.00212494
-0.00237478
-0.00263401
-0.00289094
-0.00312646
-0.00331311
-0.0034074
-0.00334154
0.000373912
0.000272014
3.9099e-05
-0.000263765
-0.000566388
-0.000833487
-0.00106233
-0.00126074
-0.00143596
-0.00160497
-0.0017963
-0.00201506
-0.00225464
-0.00251253
-0.00277983
-0.00304326
-0.00328369
-0.00347273
-0.00356723
-0.00350123
0.000371611
0.000264243
2.29063e-05
-0.000291064
-0.000608881
-0.00089202
-0.00113183
-0.0013393
-0.00152875
-0.00171091
-0.00191103
-0.00213766
-0.00238445
-0.00264888
-0.00292222
-0.00319113
-0.00343579
-0.00362719
-0.00372157
-0.00365436
0.000364458
0.000252141
2.89919e-06
-0.000320451
-0.000650723
-0.000949646
-0.00120322
-0.00141979
-0.00162134
-0.00181677
-0.00202554
-0.00226044
-0.00251349
-0.00278296
-0.00306069
-0.00333342
-0.00358142
-0.00377482
-0.00386959
-0.003801
0.000351891
0.000235359
-1.99458e-05
-0.00035162
-0.000693016
-0.00100534
-0.00127299
-0.00150088
-0.0017136
-0.00192185
-0.00213879
-0.00238031
-0.00264061
-0.00291462
-0.00319485
-0.00346984
-0.00372033
-0.0039149
-0.00400985
-0.0039402
0.000334101
0.000214435
-4.5733e-05
-0.000383776
-0.000734193
-0.00105933
-0.00134046
-0.00157967
-0.00180451
-0.00202497
-0.00225006
-0.00249749
-0.00276312
-0.00304048
-0.00332315
-0.00360015
-0.00385201
-0.00404694
-0.00414158
-0.00407097
0.000311181
0.000189306
-7.38613e-05
-0.000415929
-0.000773112
-0.00110949
-0.0014048
-0.00165645
-0.00189127
-0.00212279
-0.00235787
-0.00261081
-0.00288005
-0.00316067
-0.00344533
-0.00372335
-0.00397564
-0.0041706
-0.00426447
-0.00419245
0.00028365
0.000160788
-0.000102324
-0.000446664
-0.000810616
-0.00115488
-0.00146139
-0.0017284
-0.00197468
-0.00221489
-0.0024586
-0.00271817
-0.00299161
-0.0032737
-0.00355922
-0.00383759
-0.00409037
-0.00428534
-0.00437803
-0.00430433
0.000252646
0.00012915
-0.000131863
-0.000474897
-0.00084244
-0.0011948
-0.0015116
-0.00179132
-0.00205052
-0.00230044
-0.00255125
-0.00281604
-0.00309364
-0.00337798
-0.00366401
-0.00394254
-0.00419526
-0.00438997
-0.00448191
-0.00440672
0.000219505
9.68404e-05
-0.000160408
-0.000501222
-0.000868823
-0.00122631
-0.00155531
-0.00184521
-0.00211361
-0.00237559
-0.00263374
-0.00290258
-0.00318349
-0.00346992
-0.0037571
-0.0040348
-0.00428593
-0.00448002
-0.0045719
-0.00449623
0.000189265
6.77053e-05
-0.000184843
-0.00052203
-0.000891201
-0.00124971
-0.00158587
-0.00188853
-0.00216258
-0.0024336
-0.0027021
-0.00297276
-0.00325411
-0.00354268
-0.00383262
-0.00410986
-0.00435903
-0.00455154
-0.00464256
-0.00456644
0.000159073
3.7614e-05
-0.000211618
-0.000545208
-0.000913706
-0.00127414
-0.00161498
-0.00192975
-0.00221107
-0.00248568
-0.00276493
-0.0030407
-0.00332256
-0.0036128
-0.00390475
-0.00418389
-0.0044317
-0.00462186
-0.00471184
-0.00463584
0.00314511
0.00340548
0.0033563
0.00327766
0.00319397
0.00306063
0.00285351
0.00258193
0.00226721
0.00192917
0.00158152
0.0012333
0.000889179
0.000548399
0.000203871
-0.000152763
-0.000529354
-0.000937755
-0.00138928
-0.00189341
-0.00245695
-0.00308422
-0.00377424
-0.00451853
-0.00528691
-0.0060144
-0.00660602
-0.00698009
-0.0070999
-0.00698594
-0.0067154
-0.00637042
-0.00601795
-0.00570243
-0.00544714
-0.00525795
-0.0051292
-0.0050506
-0.00501189
-0.00500625
-0.00502688
-0.00506748
-0.00511901
-0.00517602
-0.00523495
-0.00529571
-0.00536039
-0.0054265
-0.00549266
-0.00555931
-0.00562688
-0.00569215
-0.0057593
-0.00582475
-0.00588653
-0.00594992
-0.00601205
-0.00607574
-0.00614098
-0.00620657
-0.00627094
-0.00633531
-0.00640149
-0.00646311
-0.00652639
-0.00659038
-0.00665537
-0.0067245
-0.00678871
-0.00685603
-0.0069227
-0.00698423
-0.00705385
-0.00712102
-0.00718701
-0.00725634
-0.00732241
-0.00739082
-0.00745851
-0.00752288
-0.00758932
-0.0076522
-0.00771787
-0.00777972
-0.0078364
-0.00789983
-0.00795574
-0.00800426
-0.00806371
-0.00812
-0.00816057
-0.00820498
-0.00825723
-0.00829971
-0.00833548
-0.00837422
-0.008409
-0.00843831
-0.00846103
-0.00848104
0.00256439
0.00303757
0.00325088
0.00326194
0.00317639
0.0030277
0.00281656
0.00254886
0.00223878
0.00190342
0.00155685
0.00120909
0.000865393
0.000525364
0.000181792
-0.000173862
-0.000549235
-0.00095587
-0.00140491
-0.00190574
-0.00246496
-0.00308662
-0.00376916
-0.00450246
-0.00525815
-0.00597417
-0.00656053
-0.00693929
-0.00706834
-0.00696311
-0.00669897
-0.00635793
-0.00600744
-0.00569377
-0.00544001
-0.00525191
-0.00512385
-0.00504574
-0.00500738
-0.00500202
-0.00502288
-0.00506369
-0.0051154
-0.00517263
-0.00523178
-0.00529272
-0.00535762
-0.00542391
-0.00549023
-0.00555706
-0.00562479
-0.00569017
-0.00575747
-0.00582305
-0.00588492
-0.00594844
-0.00601066
-0.00607444
-0.00613977
-0.00620543
-0.00626985
-0.00633428
-0.00640054
-0.00646218
-0.00652552
-0.00658956
-0.00665457
-0.00672376
-0.00678797
-0.00685534
-0.00692205
-0.00698358
-0.00705325
-0.00712045
-0.00718645
-0.00725582
-0.0073219
-0.00739034
-0.00745807
-0.00752245
-0.00758892
-0.00765182
-0.00771751
-0.0077794
-0.00783608
-0.00789955
-0.00795547
-0.00800399
-0.00806347
-0.00811981
-0.00816037
-0.00820479
-0.00825707
-0.00829957
-0.00833533
-0.00837409
-0.00840889
-0.00843821
-0.00846094
-0.00848094
0.00224696
0.00282014
0.00319343
0.00329496
0.00321199
0.00303536
0.00280278
0.00252695
0.00221555
0.00187976
0.00153185
0.00118237
0.00083716
0.000496218
0.00015251
-0.000202815
-0.000577404
-0.000982407
-0.00142843
-0.0019246
-0.00247687
-0.00308876
-0.00375772
-0.00447006
-0.00519784
-0.00588502
-0.00645157
-0.00682649
-0.00697012
-0.00689154
-0.0066533
-0.00633064
-0.00599145
-0.00568449
-0.00543621
-0.00525206
-0.00512607
-0.0050486
-0.00501015
-0.00500437
-0.00502464
-0.00506478
-0.00511586
-0.00517255
-0.00523132
-0.00529202
-0.00535668
-0.00542281
-0.00548902
-0.00555573
-0.00562339
-0.00568867
-0.00575588
-0.00582141
-0.00588327
-0.00594685
-0.00600913
-0.006073
-0.00613839
-0.00620408
-0.00626853
-0.00633297
-0.00639928
-0.00646099
-0.00652444
-0.00658856
-0.00665362
-0.00672285
-0.00678708
-0.00685449
-0.00692126
-0.00698281
-0.00705255
-0.00711979
-0.00718581
-0.00725523
-0.00732132
-0.00738979
-0.00745755
-0.00752196
-0.00758846
-0.00765137
-0.0077171
-0.007779
-0.0078357
-0.00789922
-0.00795516
-0.00800369
-0.00806321
-0.00811957
-0.00816014
-0.00820459
-0.00825689
-0.0082994
-0.00833518
-0.00837397
-0.00840878
-0.00843813
-0.00846098
-0.00848093
0.00199052
0.00259626
0.00306125
0.00325035
0.00320416
0.00302388
0.00277504
0.00248852
0.0021743
0.00183915
0.00149198
0.0011427
0.000797295
0.000456296
0.000112984
-0.000241718
-0.000615169
-0.00101761
-0.00145926
-0.00194891
-0.00249167
-0.00308994
-0.00374011
-0.0044273
-0.00512296
-0.00577766
-0.00632118
-0.0066913
-0.00685113
-0.00680287
-0.00659555
-0.00629611
-0.0059716
-0.00567357
-0.00543091
-0.00525013
-0.00512587
-0.00504895
-0.00501049
-0.00500433
-0.00502401
-0.00506343
-0.00511377
-0.00516985
-0.00522839
-0.00528904
-0.00535356
-0.00541974
-0.00548597
-0.00555267
-0.00562044
-0.0056857
-0.00575284
-0.00581835
-0.0058803
-0.00594406
-0.00600651
-0.00607061
-0.00613618
-0.00620196
-0.00626649
-0.00633096
-0.00639729
-0.00645912
-0.00652278
-0.00658706
-0.0066522
-0.00672149
-0.00678574
-0.00685316
-0.00691998
-0.00698162
-0.00705142
-0.00711868
-0.00718476
-0.00725421
-0.00732029
-0.00738877
-0.00745657
-0.00752101
-0.00758755
-0.00765046
-0.0077162
-0.00777815
-0.00783487
-0.00789843
-0.00795443
-0.008003
-0.0080625
-0.00811891
-0.00815956
-0.00820406
-0.00825636
-0.00829892
-0.00833478
-0.00837362
-0.00840846
-0.00843788
-0.00846103
-0.00848094
0.00176146
0.00237216
0.00289341
0.00316338
0.00317683
0.00301387
0.00275856
0.00246064
0.00213888
0.00180053
0.00145227
0.00110267
0.000757124
0.000416277
7.33634e-05
-0.000280692
-0.000652631
-0.00105187
-0.00148843
-0.00197066
-0.00250261
-0.00308523
-0.00371375
-0.00437299
-0.00503632
-0.00565962
-0.00618107
-0.00654638
-0.00672124
-0.00670257
-0.00652799
-0.00625516
-0.00594834
-0.00566088
-0.00542396
-0.00524623
-0.00512376
-0.00504783
-0.00500982
-0.00500362
-0.00502294
-0.00506174
-0.00511137
-0.00516686
-0.00522516
-0.00528582
-0.00535015
-0.00541636
-0.0054826
-0.00554919
-0.00561708
-0.00568225
-0.00574921
-0.00581463
-0.00587661
-0.00594056
-0.00600319
-0.00606753
-0.00613331
-0.00619915
-0.00626378
-0.00632824
-0.00639454
-0.00645653
-0.00652046
-0.006585
-0.00665023
-0.00671951
-0.00678383
-0.00685124
-0.00691809
-0.00697988
-0.00704973
-0.00711703
-0.00718319
-0.00725267
-0.00731872
-0.0073872
-0.00745503
-0.00751953
-0.00758611
-0.007649
-0.00771472
-0.00777677
-0.00783352
-0.00789706
-0.0079532
-0.00800188
-0.00806125
-0.00811771
-0.00815857
-0.00820314
-0.00825538
-0.00829804
-0.00833404
-0.00837293
-0.00840785
-0.00843736
-0.00846099
-0.00848089
0.00154998
0.00215425
0.00271505
0.00305306
0.00313192
0.00300315
0.00275246
0.00244394
0.00210993
0.00176359
0.00141131
0.0010601
0.000714123
0.000373558
3.14841e-05
-0.000321477
-0.000691311
-0.00108659
-0.00151722
-0.001991
-0.00251096
-0.00307652
-0.003682
-0.00431321
-0.0049455
-0.00553898
-0.00603924
-0.00639911
-0.00658712
-0.00659626
-0.00645433
-0.00620984
-0.00592304
-0.00564756
-0.00541684
-0.0052421
-0.00512128
-0.00504632
-0.00500886
-0.00500273
-0.00502181
-0.00506
-0.00510891
-0.00516381
-0.0052218
-0.00528242
-0.00534647
-0.00541267
-0.00547894
-0.00554538
-0.00561335
-0.00567841
-0.00574512
-0.00581041
-0.00587237
-0.00593653
-0.00599937
-0.00606396
-0.00612998
-0.00619587
-0.00626059
-0.00632504
-0.00639128
-0.00645343
-0.00651767
-0.00658255
-0.00664786
-0.0067171
-0.0067815
-0.00684888
-0.00691575
-0.00697773
-0.00704759
-0.00711496
-0.00718119
-0.0072507
-0.00731671
-0.00738514
-0.00745301
-0.00751758
-0.00758419
-0.00764706
-0.00771268
-0.00777487
-0.00783167
-0.0078951
-0.00795144
-0.00800034
-0.00805943
-0.00811592
-0.00815714
-0.00820179
-0.00825388
-0.00829669
-0.00833291
-0.00837186
-0.00840688
-0.00843653
-0.00846079
-0.00848069
0.0013442
0.00194187
0.00253133
0.00292538
0.00306721
0.00298192
0.00274596
0.00243177
0.00208484
0.00172744
0.00136831
0.00101379
0.000666795
0.000326501
-1.40304e-05
-0.000365052
-0.00073222
-0.00112275
-0.00154641
-0.00201054
-0.00251742
-0.00306497
-0.00364684
-0.00425033
-0.00485246
-0.00541732
-0.00589711
-0.00625071
-0.00644948
-0.00648408
-0.00637418
-0.00615942
-0.00589483
-0.00563301
-0.00540927
-0.0052376
-0.00511828
-0.00504414
-0.00500722
-0.00500125
-0.00502014
-0.00505781
-0.00510604
-0.00516036
-0.00521802
-0.00527861
-0.00534237
-0.00540855
-0.00547493
-0.00554123
-0.00560923
-0.00567415
-0.00574056
-0.00580572
-0.00586765
-0.00593202
-0.00599514
-0.00606005
-0.00612629
-0.00619224
-0.00625706
-0.00632147
-0.00638768
-0.00645001
-0.00651457
-0.00657983
-0.00664525
-0.00671442
-0.00677888
-0.00684622
-0.00691313
-0.00697531
-0.00704518
-0.00711262
-0.00717891
-0.00724846
-0.00731442
-0.00738277
-0.00745067
-0.00751532
-0.00758196
-0.0076448
-0.00771028
-0.00777262
-0.0078295
-0.00789276
-0.00794933
-0.00799851
-0.0080572
-0.00811372
-0.0081554
-0.00820013
-0.00825199
-0.008295
-0.00833151
-0.00837049
-0.00840564
-0.00843547
-0.00846043
-0.00848036
0.00113621
0.00173056
0.00234393
0.00278499
0.00298368
0.0029462
0.00273295
0.00242
0.00206256
0.00169273
0.0013243
0.000964368
0.000615366
0.000275171
-6.33563e-05
-0.000411414
-0.000775175
-0.00116017
-0.0015756
-0.00202883
-0.00252148
-0.0030503
-0.00360853
-0.00418464
-0.00475738
-0.00529464
-0.00575451
-0.00610095
-0.00630825
-0.0063659
-0.00628691
-0.00610274
-0.00586215
-0.00561594
-0.00540053
-0.00523242
-0.00511458
-0.00504109
-0.00500465
-0.00499889
-0.00501766
-0.00505491
-0.00510257
-0.00515634
-0.00521369
-0.00527435
-0.00533785
-0.00540397
-0.00547053
-0.00553665
-0.00560466
-0.00566946
-0.00573554
-0.00580058
-0.00586251
-0.00592712
-0.00599055
-0.00605585
-0.00612235
-0.00618829
-0.00625322
-0.00631762
-0.00638377
-0.00644635
-0.00651124
-0.00657685
-0.00664241
-0.00671153
-0.00677603
-0.00684331
-0.00691027
-0.00697271
-0.00704256
-0.00711006
-0.00717642
-0.00724601
-0.00731192
-0.00738018
-0.00744812
-0.00751283
-0.00757948
-0.00764232
-0.00770763
-0.00777012
-0.0078271
-0.00789016
-0.00794696
-0.00799648
-0.00805473
-0.00811124
-0.00815346
-0.00819827
-0.00824984
-0.00829308
-0.00832994
-0.00836893
-0.00840421
-0.00843427
-0.00845992
-0.00847995
0.000924838
0.0015192
0.00215452
0.00263613
0.00288467
0.00289436
0.00271031
0.00240525
0.00204159
0.00165993
0.00128063
0.000913246
0.000560809
0.000220214
-0.000116362
-0.00046056
-0.000819744
-0.00119836
-0.00160444
-0.00204557
-0.00252289
-0.00303239
-0.00356715
-0.00411621
-0.00466018
-0.00517087
-0.00561133
-0.00594988
-0.00616367
-0.00624181
-0.00619213
-0.00603894
-0.00582417
-0.00559567
-0.00539031
-0.00522656
-0.00511035
-0.00503738
-0.0050012
-0.00499556
-0.00501427
-0.00505119
-0.00509836
-0.0051517
-0.00520879
-0.00526963
-0.00533296
-0.00539898
-0.00546572
-0.0055317
-0.00559974
-0.00566443
-0.00573016
-0.00579507
-0.00585701
-0.00592189
-0.00598562
-0.00605134
-0.0061182
-0.00618407
-0.00624906
-0.00631348
-0.00637958
-0.00644242
-0.00650769
-0.00657367
-0.00663933
-0.00670842
-0.006773
-0.00684019
-0.00690716
-0.00696991
-0.00703975
-0.0071073
-0.00717372
-0.00724335
-0.00730922
-0.00737737
-0.00744538
-0.00751015
-0.0075768
-0.00763965
-0.00770477
-0.00776739
-0.00782453
-0.00788736
-0.00794438
-0.00799428
-0.00805205
-0.00810853
-0.00815136
-0.00819625
-0.0082475
-0.00829098
-0.00832825
-0.00836722
-0.00840266
-0.00843297
-0.00845931
-0.00847949
0.000711546
0.00130871
0.00196465
0.00248182
0.00277393
0.00282762
0.00267604
0.00238474
0.00202004
0.00162887
0.00123817
0.00086188
0.000504406
0.000162516
-0.000172529
-0.000512422
-0.00086571
-0.00123696
-0.00163285
-0.00206068
-0.00252159
-0.00301116
-0.00352248
-0.00404504
-0.00456105
-0.00504621
-0.0054677
-0.00579765
-0.00601615
-0.0061123
-0.00609011
-0.00596783
-0.00578038
-0.00557159
-0.0053782
-0.00521994
-0.00510567
-0.00503318
-0.00499696
-0.00499121
-0.00500987
-0.00504652
-0.00509329
-0.0051464
-0.00520332
-0.00526439
-0.00532771
-0.00539363
-0.00546056
-0.00552642
-0.0055945
-0.00565911
-0.0057244
-0.00578916
-0.00585113
-0.00591634
-0.00598036
-0.00604642
-0.00611373
-0.00617964
-0.00624461
-0.00630899
-0.0063751
-0.00643821
-0.00650388
-0.00657028
-0.00663601
-0.00670505
-0.00676975
-0.00683683
-0.00690379
-0.00696687
-0.00703676
-0.00710436
-0.0071708
-0.00724048
-0.00730633
-0.00737436
-0.00744244
-0.00750728
-0.0075739
-0.00763679
-0.0077017
-0.00776445
-0.00782179
-0.00788436
-0.00794158
-0.00799195
-0.0080492
-0.0081056
-0.00814912
-0.0081941
-0.00824498
-0.00828871
-0.00832645
-0.00836538
-0.00840098
-0.00843157
-0.00845858
-0.00847899
0.000498558
0.00110035
0.00177545
0.00232351
0.00265393
0.00274766
0.00262914
0.00235616
0.00199525
0.0015981
0.00119707
0.000811097
0.000447111
0.000102742
-0.000231243
-0.000566811
-0.000913231
-0.00127595
-0.0016608
-0.0020743
-0.00251777
-0.00298677
-0.00347456
-0.00397133
-0.0044606
-0.00492114
-0.00532395
-0.00564477
-0.00586639
-0.00597824
-0.00598148
-0.00588937
-0.00573026
-0.00554303
-0.00536341
-0.0052122
-0.00510048
-0.00502845
-0.00499203
-0.00498593
-0.00500439
-0.00504086
-0.00508734
-0.00514034
-0.00519723
-0.00525861
-0.00532199
-0.00538786
-0.00545509
-0.00552078
-0.00558879
-0.00565339
-0.0057182
-0.00578278
-0.00584481
-0.00591038
-0.00597477
-0.00604113
-0.0061089
-0.00617492
-0.00623988
-0.00630416
-0.00637024
-0.00643366
-0.00649977
-0.00656664
-0.00663246
-0.00670139
-0.00676626
-0.00683328
-0.00690018
-0.00696356
-0.00703352
-0.00710122
-0.00716766
-0.00723738
-0.00730322
-0.00737111
-0.0074393
-0.00750421
-0.00757079
-0.00763374
-0.00769842
-0.00776127
-0.00781887
-0.00788114
-0.00793857
-0.00798946
-0.00804615
-0.00810241
-0.00814673
-0.00819181
-0.00824227
-0.00828626
-0.00832453
-0.00836342
-0.00839917
-0.00843008
-0.00845774
-0.00847842
0.000287286
0.000894341
0.00158681
0.00216187
0.00252591
0.00265567
0.00256928
0.00231766
0.00196468
0.00156542
0.00115649
0.000761213
0.000389717
4.16441e-05
-0.000291886
-0.000623295
-0.000962418
-0.00131548
-0.00168826
-0.00208663
-0.00251186
-0.00295968
-0.00342371
-0.0038954
-0.00435922
-0.00479592
-0.00518032
-0.00549166
-0.00571505
-0.00584047
-0.00586702
-0.00580376
-0.00567335
-0.00550921
-0.00534515
-0.00520274
-0.00509471
-0.00502333
-0.0049866
-0.00497995
-0.0049979
-0.00503411
-0.00508037
-0.0051333
-0.0051903
-0.00525215
-0.00531573
-0.00538159
-0.00544923
-0.00551483
-0.00558265
-0.00564725
-0.00571163
-0.005776
-0.00583805
-0.00590399
-0.00596881
-0.00603547
-0.00610363
-0.0061698
-0.00623483
-0.00629901
-0.00636501
-0.00642877
-0.00649534
-0.00656273
-0.0066287
-0.00669745
-0.00676243
-0.00682947
-0.00689635
-0.00695997
-0.00703001
-0.00709786
-0.00716431
-0.00723406
-0.00729989
-0.0073676
-0.00743592
-0.00750094
-0.00756744
-0.00763048
-0.00769491
-0.00775784
-0.00781574
-0.00787769
-0.00793533
-0.00798681
-0.0080429
-0.00809896
-0.00814419
-0.00818939
-0.00823934
-0.00828362
-0.00832249
-0.00836133
-0.00839723
-0.00842849
-0.00845676
-0.00847776
7.83568e-05
0.0006905
0.00139846
0.00199729
0.00239107
0.00255335
0.00249742
0.00226846
0.00192688
0.00152917
0.00111534
0.000712104
0.00033295
-1.97435e-05
-0.000353587
-0.000681059
-0.00101282
-0.00135551
-0.00171503
-0.00209751
-0.00250404
-0.00293023
-0.00337024
-0.00381736
-0.00425684
-0.00467057
-0.00503701
-0.00533878
-0.0055628
-0.00569975
-0.00574737
-0.00571115
-0.0056091
-0.00546933
-0.0053227
-0.00519078
-0.00508793
-0.00501792
-0.00498066
-0.00497317
-0.0049903
-0.00502604
-0.00507214
-0.00512518
-0.00518241
-0.00524488
-0.00530892
-0.0053748
-0.00544288
-0.00550852
-0.00557607
-0.00564062
-0.00570458
-0.00576872
-0.00583076
-0.00589701
-0.00596235
-0.00602943
-0.006098
-0.00616427
-0.00622942
-0.00629356
-0.00635941
-0.00642349
-0.00649055
-0.00655846
-0.00662465
-0.00669328
-0.0067583
-0.00682533
-0.00689231
-0.00695616
-0.00702618
-0.00709423
-0.00716075
-0.0072305
-0.00729634
-0.00736382
-0.0074323
-0.00749744
-0.00756386
-0.00762701
-0.00769115
-0.00775415
-0.00781245
-0.007874
-0.00793185
-0.007984
-0.00803944
-0.00809524
-0.00814148
-0.00818682
-0.0082362
-0.0082808
-0.00832032
-0.00835908
-0.00839513
-0.00842678
-0.00845563
-0.008477
-0.000128814
0.00048795
0.00120986
0.00182994
0.0022502
0.00244179
0.00241425
0.00220817
0.0018805
0.00148759
0.00107192
0.000662943
0.000277062
-8.06248e-05
-0.000415574
-0.000739518
-0.00106393
-0.00139602
-0.00174133
-0.00210699
-0.00249459
-0.00289896
-0.00331473
-0.00373736
-0.00415334
-0.00454538
-0.00489463
-0.00518678
-0.0054104
-0.00555681
-0.00562319
-0.00561212
-0.0055375
-0.00542286
-0.0052955
-0.00517564
-0.0050793
-0.00501183
-0.00497417
-0.00496558
-0.00498179
-0.00501683
-0.00506264
-0.00511587
-0.00517343
-0.00523659
-0.00530136
-0.00536738
-0.005436
-0.00550184
-0.00556902
-0.0056335
-0.00569694
-0.00576084
-0.00582301
-0.00588955
-0.00595545
-0.00602299
-0.00609203
-0.00615838
-0.00622343
-0.00628764
-0.00635348
-0.0064178
-0.00648541
-0.00655388
-0.00662028
-0.00668889
-0.00675393
-0.00682079
-0.00688793
-0.00695213
-0.0070221
-0.00709027
-0.0071569
-0.00722673
-0.00729254
-0.00735976
-0.00742842
-0.00749369
-0.00756002
-0.00762333
-0.00768712
-0.00775014
-0.00780897
-0.00787008
-0.00792808
-0.007981
-0.00803576
-0.00809124
-0.00813861
-0.00818411
-0.0082328
-0.00827776
-0.00831803
-0.00835669
-0.00839286
-0.00842496
-0.00845437
-0.00847611
-0.000334638
0.000286187
0.00102075
0.00165996
0.00210392
0.00232189
0.00232053
0.00213698
0.00182485
0.0014396
0.00102499
0.000612776
0.00022178
-0.000140528
-0.000477021
-0.000798001
-0.0011152
-0.0014365
-0.00176721
-0.0021152
-0.00248349
-0.00286636
-0.00325786
-0.00365583
-0.00404907
-0.00442093
-0.00475398
-0.00503622
-0.00525824
-0.00541228
-0.00549519
-0.00550741
-0.00545899
-0.00536934
-0.00526252
-0.00515654
-0.0050681
-0.00500458
-0.00496738
-0.00495756
-0.00497252
-0.00500658
-0.00505182
-0.00510517
-0.00516328
-0.00522721
-0.00529295
-0.0053593
-0.00542848
-0.00549468
-0.00556149
-0.00562589
-0.00568878
-0.00575233
-0.0058148
-0.00588165
-0.005948
-0.00601602
-0.00608555
-0.00615209
-0.00621696
-0.00628119
-0.00634722
-0.00641183
-0.00647992
-0.00654899
-0.00661554
-0.0066841
-0.00674929
-0.00681592
-0.00688314
-0.00694783
-0.00701782
-0.00708603
-0.0071527
-0.00722267
-0.00728853
-0.00735545
-0.00742427
-0.00748966
-0.00755588
-0.00761945
-0.00768283
-0.0077458
-0.00780526
-0.00786593
-0.00792402
-0.00797781
-0.00803184
-0.00808691
-0.00813557
-0.00818126
-0.00822915
-0.0082745
-0.00831559
-0.00835414
-0.00839039
-0.008423
-0.00845295
-0.00847508
-0.000539383
8.51269e-05
0.000831217
0.0014878
0.00195316
0.00219504
0.00221771
0.00205586
0.00176003
0.0013844
0.00097347
0.00056051
0.000166521
-0.000199135
-0.000537039
-0.000855482
-0.00116585
-0.00147629
-0.00179245
-0.00212252
-0.00247088
-0.00283266
-0.0032004
-0.00357353
-0.00394449
-0.00429735
-0.00461513
-0.00488727
-0.0051067
-0.0052669
-0.00536417
-0.00539754
-0.00537389
-0.00530857
-0.005223
-0.00513288
-0.00505391
-0.00499543
-0.00495986
-0.00494911
-0.00496238
-0.00499524
-0.00503973
-0.00509302
-0.00515184
-0.00521654
-0.00528342
-0.00535042
-0.00542022
-0.005487
-0.00555349
-0.00561775
-0.00568013
-0.00574313
-0.00580591
-0.00587316
-0.00594
-0.00600854
-0.00607865
-0.00614548
-0.00621013
-0.0062742
-0.00634043
-0.0064055
-0.00647401
-0.00654368
-0.00661043
-0.00667894
-0.0067444
-0.00681084
-0.006878
-0.00694313
-0.00701325
-0.00708155
-0.00714816
-0.00721829
-0.00728428
-0.00735085
-0.00741982
-0.00748534
-0.00755142
-0.00761533
-0.00767831
-0.00774116
-0.0078013
-0.00786152
-0.00791967
-0.00797441
-0.00802768
-0.00808226
-0.00813234
-0.00817827
-0.00822524
-0.00827101
-0.008313
-0.00835143
-0.00838772
-0.00842086
-0.00845138
-0.0084739
-0.000742882
-0.000114864
0.000641617
0.00131394
0.00179875
0.00206233
0.00210695
0.00196542
0.00168607
0.00132156
0.000916607
0.000505277
0.000110529
-0.000256661
-0.000595318
-0.000911239
-0.00121513
-0.00151507
-0.00181668
-0.00212894
-0.00245709
-0.00279789
-0.00314294
-0.00349155
-0.00384014
-0.00417474
-0.00447819
-0.00474044
-0.00495652
-0.00512151
-0.00523107