/*--------------------------------*- C++ -*----------------------------------*\
| =========                 |                                                 |
| \\      /  F ield         | OpenFOAM: The Open Source CFD Toolbox           |
|  \\    /   O peration     | Version:  v2106                                 |
|   \\  /    A nd           | Website:  www.openfoam.com                      |
|    \\/     M anipulation  |                                                 |
\*---------------------------------------------------------------------------*/
FoamFile
{
    version     2.0;
    format      ascii;
    arch        "LSB;label=32;scalar=64";
    class       surfaceScalarField;
    location    "1.2";
    object      phi;
}
// * * * * * * * * * * * * * * * * * * * * * * * * * * * * * * * * * * * * * //

dimensions      [0 3 -1 0 0 0 0];

oriented        oriented;

internalField   nonuniform List<scalar> 
9440
(
3.88154e-06
-1.26384e-09
3.87685e-06
-3.48125e-08
3.88001e-06
1.27944e-08
3.87691e-06
-2.52284e-08
3.87985e-06
1.29016e-08
3.87734e-06
-2.79184e-08
3.8794e-06
7.34244e-09
3.87821e-06
-2.14653e-08
3.88045e-06
1.18873e-08
3.88036e-06
-1.09793e-08
3.88258e-06
1.41229e-08
3.88271e-06
-8.12876e-09
3.88434e-06
1.20542e-08
3.88406e-06
-6.53373e-09
3.8856e-06
1.09058e-08
3.88578e-06
-4.39334e-09
3.8854e-06
7.73506e-09
3.88138e-06
-3.92098e-11
3.86816e-06
2.00413e-08
3.34522e-08
3.845e-06
4.18339e-06
1.20502e-09
4.18587e-06
-3.72923e-08
4.18411e-06
1.45578e-08
4.18615e-06
-2.72696e-08
4.18547e-06
1.35781e-08
4.18604e-06
-2.84851e-08
4.1861e-06
7.28407e-09
4.18544e-06
-2.08084e-08
4.18687e-06
1.04565e-08
4.18537e-06
-9.48213e-09
4.18789e-06
1.16088e-08
4.18661e-06
-6.85158e-09
4.18928e-06
9.38191e-09
4.18838e-06
-5.63546e-09
4.191e-06
8.28595e-09
4.18764e-06
-1.03281e-09
4.18615e-06
9.2249e-09
4.17607e-06
1.00462e-08
4.16891e-06
2.71966e-08
4.04686e-08
4.1619e-06
4.51776e-06
3.50337e-09
4.51939e-06
-3.89203e-08
4.51923e-06
1.47214e-08
4.51939e-06
-2.74337e-08
4.52122e-06
1.1749e-08
4.51906e-06
-2.63186e-08
4.5222e-06
4.14375e-09
4.51842e-06
-1.70345e-08
4.52302e-06
5.85534e-09
4.51847e-06
-4.93139e-09
4.52418e-06
5.90032e-09
4.51945e-06
-2.12531e-09
4.52594e-06
2.89182e-09
4.5224e-06
-2.08822e-09
4.52729e-06
3.39005e-09
4.52274e-06
3.52177e-09
4.52328e-06
8.68292e-09
4.51458e-06
1.87505e-08
4.50605e-06
3.57262e-08
4.85645e-08
4.49795e-06
4.88043e-06
4.02237e-09
4.87981e-06
-3.83058e-08
4.88241e-06
1.21243e-08
4.88017e-06
-2.51907e-08
4.88443e-06
7.4832e-09
4.8801e-06
-2.19852e-08
4.88495e-06
-7.03577e-10
4.88016e-06
-1.22499e-08
4.8849e-06
1.11784e-09
4.88167e-06
-1.69695e-09
4.88647e-06
1.09269e-09
4.88613e-06
-1.77646e-09
4.88892e-06
9.77773e-11
4.88782e-06
-9.87446e-10
4.88933e-06
1.88348e-09
4.8864e-06
6.4439e-09
4.88318e-06
1.1909e-08
4.87207e-06
2.98597e-08
4.86446e-06
4.33385e-08
5.32312e-08
4.85979e-06
5.27078e-06
3.89001e-09
5.269e-06
-3.65311e-08
5.2733e-06
7.82582e-09
5.26977e-06
-2.16561e-08
5.27526e-06
1.99329e-09
5.2702e-06
-1.69259e-08
5.27528e-06
-5.78878e-09
5.27114e-06
-8.10357e-09
5.27517e-06
-2.91397e-09
5.27556e-06
-2.09154e-09
5.27792e-06
-1.26666e-09
5.27854e-06
-2.39593e-09
5.28021e-06
-1.56696e-09
5.28007e-06
-8.44892e-10
5.2799e-06
2.04814e-09
5.27623e-06
1.01115e-08
5.26456e-06
2.35768e-08
5.25598e-06
3.84404e-08
5.25233e-06
4.69891e-08
5.58813e-08
5.24968e-06
5.69183e-06
3.52038e-09
5.68917e-06
-3.3868e-08
5.69472e-06
2.27651e-09
5.69072e-06
-1.76568e-08
5.69615e-06
-3.4375e-09
5.69199e-06
-1.277e-08
5.69583e-06
-9.62908e-09
5.69488e-06
-7.1562e-09
5.69708e-06
-5.10806e-09
5.69836e-06
-3.36939e-09
5.70068e-06
-3.5937e-09
5.70132e-06
-3.03325e-09
5.70255e-06
-2.79496e-09
5.70173e-06
-2.28436e-11
5.69776e-06
6.01522e-09
5.68656e-06
2.13094e-08
5.67736e-06
3.27816e-08
5.67408e-06
4.17122e-08
5.67158e-06
4.949e-08
5.71708e-08
5.67029e-06
6.14634e-06
3.05435e-09
6.14317e-06
-3.06981e-08
6.14901e-06
-3.56268e-09
6.14604e-06
-1.46916e-08
6.14948e-06
-6.87578e-09
6.14856e-06
-1.18559e-08
6.14882e-06
-9.88654e-09
6.15092e-06
-9.25067e-09
6.15325e-06
-7.43792e-09
6.15479e-06
-4.91066e-09
6.15661e-06
-5.41268e-09
6.15749e-06
-3.91678e-09
6.15681e-06
-2.11768e-09
6.15229e-06
4.50102e-09
6.14092e-06
1.73795e-08
6.13285e-06
2.93808e-08
6.12899e-06
3.66406e-08
6.12669e-06
4.40122e-08
6.12505e-06
5.11389e-08
5.80499e-08
6.12417e-06
6.6371e-06
2.51758e-09
6.63379e-06
-2.73922e-08
6.63865e-06
-8.41577e-09
6.63784e-06
-1.38813e-08
6.63863e-06
-7.66883e-09
6.64068e-06
-1.39091e-08
6.64176e-06
-1.09683e-08
6.6428e-06
-1.02885e-08
6.64567e-06
-1.0309e-08
6.6477e-06
-6.93727e-09
6.64847e-06
-6.18745e-09
6.64799e-06
-3.4318e-09
6.64303e-06
2.8416e-09
6.6327e-06
1.48254e-08
6.62431e-06
2.57765e-08
6.62039e-06
3.32959e-08
6.61797e-06
3.90607e-08
6.61629e-06
4.56983e-08
6.61466e-06
5.27618e-08
5.8689e-08
6.61402e-06
7.16694e-06
2.00676e-09
7.16399e-06
-2.44461e-08
7.16566e-06
-1.00783e-08
7.16857e-06
-1.67925e-08
7.16891e-06
-8.0089e-09
7.1709e-06
-1.59e-08
7.17401e-06
-1.40814e-08
7.17528e-06
-1.15598e-08
7.17686e-06
-1.18883e-08
7.17897e-06
-9.04114e-09
7.17906e-06
-6.27661e-09
7.17529e-06
3.29906e-10
7.16469e-06
1.3446e-08
7.15539e-06
2.4121e-08
7.15097e-06
3.02031e-08
7.14858e-06
3.56793e-08
7.14661e-06
4.10379e-08
7.14475e-06
4.75583e-08
7.14353e-06
5.3977e-08
5.91528e-08
7.14307e-06
7.73914e-06
1.47142e-09
7.7364e-06
-2.17055e-08
7.73721e-06
-1.08885e-08
7.73988e-06
-1.94641e-08
7.74397e-06
-1.20999e-08
7.74335e-06
-1.52758e-08
7.74707e-06
-1.77994e-08
7.74937e-06
-1.38643e-08
7.75071e-06
-1.32261e-08
7.75079e-06
-9.12357e-09
7.74563e-06
-1.11505e-09
7.73541e-06
1.05486e-08
7.72753e-06
2.1328e-08
7.72397e-06
2.76761e-08
7.72161e-06
3.25637e-08
7.7195e-06
3.77871e-08
7.71726e-06
4.32827e-08
7.71568e-06
4.91393e-08
7.71469e-06
5.49666e-08
5.94212e-08
7.71442e-06
8.35702e-06
9.10638e-10
8.35457e-06
-1.9252e-08
8.35522e-06
-1.15393e-08
8.35617e-06
-2.04152e-08
8.36285e-06
-1.87787e-08
8.36443e-06
-1.68525e-08
8.36584e-06
-1.92147e-08
8.36782e-06
-1.58457e-08
8.36773e-06
-1.31382e-08
8.36225e-06
-3.63478e-09
8.35297e-06
8.15623e-09
8.34569e-06
1.78343e-08
8.34226e-06
2.47573e-08
8.34021e-06
2.97202e-08
8.33803e-06
3.47486e-08
8.33582e-06
3.99949e-08
8.33381e-06
4.52924e-08
8.33234e-06
5.06088e-08
8.33164e-06
5.5672e-08
5.96189e-08
8.33144e-06
9.02426e-06
2.97734e-10
9.02239e-06
-1.73773e-08
9.02339e-06
-1.25488e-08
9.02289e-06
-1.99147e-08
9.02929e-06
-2.517e-08
9.0338e-06
-2.13638e-08
9.03455e-06
-1.99714e-08
9.03419e-06
-1.5479e-08
9.0298e-06
-8.75323e-09
9.02181e-06
4.36167e-09
9.01408e-06
1.5882e-08
9.00998e-06
2.19311e-08
9.00779e-06
2.69452e-08
9.00572e-06
3.17965e-08
9.00364e-06
3.68315e-08
9.0016e-06
4.20352e-08
8.99974e-06
4.71514e-08
8.99848e-06
5.18696e-08
8.99799e-06
5.6158e-08
5.97759e-08
8.99783e-06
9.74477e-06
-3.68975e-10
9.74341e-06
-1.60177e-08
9.74549e-06
-1.46262e-08
9.74411e-06
-1.8534e-08
9.74784e-06
-2.8903e-08
9.75351e-06
-2.70313e-08
9.75481e-06
-2.12793e-08
9.74981e-06
-1.04717e-08
9.74079e-06
2.68242e-10
9.7346e-06
1.05484e-08
9.73165e-06
1.88323e-08
9.72905e-06
2.45273e-08
9.72678e-06
2.92183e-08
9.72461e-06
3.39673e-08
9.72258e-06
3.88614e-08
9.72069e-06
4.39292e-08
9.71904e-06
4.87957e-08
9.71807e-06
5.28379e-08
9.71754e-06
5.66901e-08
5.97533e-08
9.71756e-06
1.05227e-05
-1.00001e-09
1.05221e-05
-1.54136e-08
1.05243e-05
-1.67837e-08
1.0525e-05
-1.92713e-08
1.05239e-05
-2.78293e-08
1.05274e-05
-3.04658e-08
1.05282e-05
-2.21197e-08
1.05229e-05
-5.1802e-09
1.05146e-05
8.56312e-09
1.05096e-05
1.56083e-08
1.05073e-05
2.10501e-08
1.05054e-05
2.64567e-08
1.05033e-05
3.13625e-08
1.05011e-05
3.61032e-08
1.04991e-05
4.08597e-08
1.04974e-05
4.56335e-08
1.04961e-05
5.00898e-08
1.04953e-05
5.37042e-08
1.04949e-05
5.70998e-08
5.95874e-08
1.0495e-05
1.13628e-05
-1.60641e-09
1.13629e-05
-1.55334e-08
1.13652e-05
-1.90424e-08
1.13678e-05
-2.18872e-08
1.13652e-05
-2.52757e-08
1.136e-05
-2.52333e-08
1.13571e-05
-1.92067e-08
1.13552e-05
-3.34399e-09
1.13527e-05
1.11023e-08
1.13488e-05
1.94583e-08
1.13459e-05
2.40274e-08
1.13438e-05
2.85093e-08
1.13419e-05
3.33013e-08
1.13399e-05
3.80835e-08
1.1338e-05
4.27689e-08
1.13364e-05
4.71912e-08
1.13354e-05
5.11117e-08
1.13346e-05
5.44658e-08
1.13344e-05
5.73455e-08
5.92915e-08
1.13347e-05
1.22699e-05
-2.2193e-09
1.22718e-05
-1.7426e-08
1.22725e-05
-1.9653e-08
1.22743e-05
-2.36995e-08
1.22734e-05
-2.43883e-08
1.22666e-05
-1.84463e-08
1.22598e-05
-1.24418e-08
1.22572e-05
-6.95673e-10
1.22565e-05
1.1781e-08
1.22548e-05
2.11731e-08
1.22521e-05
2.66929e-08
1.22496e-05
3.09886e-08
1.22476e-05
3.53318e-08
1.22458e-05
3.99108e-08
1.2244e-05
4.45269e-08
1.22427e-05
4.8532e-08
1.22418e-05
5.19899e-08
1.22412e-05
5.5021e-08
1.22412e-05
5.74091e-08
5.8862e-08
1.22416e-05
1.32497e-05
-2.97632e-09
1.32515e-05
-1.92325e-08
1.3253e-05
-2.11655e-08
1.32517e-05
-2.23633e-08
1.32516e-05
-2.42725e-08
1.32468e-05
-1.36908e-08
1.32395e-05
-5.17173e-09
1.32349e-05
3.92442e-09
1.32334e-05
1.33209e-08
1.32323e-05
2.22358e-08
1.32306e-05
2.83947e-08
1.32282e-05
3.33748e-08
1.3226e-05
3.75197e-08
1.32242e-05
4.17253e-08
1.32227e-05
4.60762e-08
1.32216e-05
4.96075e-08
1.32208e-05
5.27393e-08
1.32205e-05
5.53429e-08
1.32207e-05
5.72738e-08
5.82923e-08
1.32212e-05
1.43077e-05
-3.90666e-09
1.43083e-05
-1.98667e-08
1.43116e-05
-2.446e-08
1.43086e-05
-1.9344e-08
1.4305e-05
-2.07442e-08
1.43026e-05
-1.12101e-08
1.42976e-05
-2.44123e-10
1.42926e-05
8.99597e-09
1.42896e-05
1.6284e-08
1.42882e-05
2.36062e-08
1.42869e-05
2.97511e-08
1.42851e-05
3.51426e-08
1.4283e-05
3.96207e-08
1.42812e-05
4.35087e-08
1.42799e-05
4.73984e-08
1.4279e-05
5.04741e-08
1.42785e-05
5.33128e-08
1.42783e-05
5.54658e-08
1.42786e-05
5.69727e-08
5.75992e-08
1.42793e-05
1.54499e-05
-4.80933e-09
1.54496e-05
-1.95417e-08
1.54523e-05
-2.72178e-08
1.54508e-05
-1.78305e-08
1.54445e-05
-1.44743e-08
1.54411e-05
-7.73208e-09
1.54383e-05
2.4935e-09
1.54347e-05
1.26623e-08
1.54314e-05
1.95164e-08
1.54292e-05
2.58166e-08
1.54278e-05
3.11993e-08
1.54263e-05
3.66146e-08
1.54247e-05
4.12567e-08
1.54231e-05
4.51223e-08
1.54219e-05
4.85532e-08
1.54212e-05
5.12035e-08
1.54208e-05
5.36776e-08
1.54209e-05
5.54109e-08
1.54213e-05
5.65132e-08
5.67792e-08
1.54221e-05
1.66831e-05
-5.42468e-09
1.66826e-05
-1.90857e-08
1.66827e-05
-2.73316e-08
1.66824e-05
-1.75146e-08
1.66771e-05
-9.15104e-09
1.66723e-05
-2.91055e-09
1.66695e-05
5.25769e-09
1.66672e-05
1.49519e-08
1.66646e-05
2.21708e-08
1.66622e-05
2.81721e-08
1.66604e-05
3.30023e-08
1.6659e-05
3.80343e-08
1.66576e-05
4.26212e-08
1.66564e-05
4.63728e-08
1.66553e-05
4.95838e-08
1.66548e-05
5.17543e-08
1.66546e-05
5.38347e-08
1.66549e-05
5.51472e-08
1.66555e-05
5.58907e-08
5.58115e-08
1.66565e-05
1.80147e-05
-5.76552e-09
1.80136e-05
-1.7988e-08
1.80118e-05
-2.54769e-08
1.80108e-05
-1.65591e-08
1.80078e-05
-6.11414e-09
1.80035e-05
1.36897e-09
1.80002e-05
8.55408e-09
1.7998e-05
1.71574e-08
1.7996e-05
2.42136e-08
1.79939e-05
3.02887e-08
1.79919e-05
3.49459e-08
1.79905e-05
3.94672e-08
1.79893e-05
4.38136e-08
1.79884e-05
4.72917e-08
1.79876e-05
5.03063e-08
1.79873e-05
5.20542e-08
1.79874e-05
5.37716e-08
1.79879e-05
5.46637e-08
1.79887e-05
5.50971e-08
5.47103e-08
1.79898e-05
1.94527e-05
-5.81149e-09
1.94509e-05
-1.6172e-08
1.94481e-05
-2.26328e-08
1.94462e-05
-1.46473e-08
1.94439e-05
-3.83227e-09
1.9441e-05
4.25339e-09
1.94381e-05
1.14488e-08
1.94357e-05
1.95456e-08
1.94337e-05
2.62164e-08
1.94319e-05
3.20834e-08
1.94302e-05
3.66806e-08
1.94288e-05
4.08458e-08
1.94278e-05
4.47993e-08
1.94271e-05
4.7987e-08
1.94267e-05
5.06893e-08
1.94266e-05
5.21435e-08
1.94269e-05
5.34988e-08
1.94276e-05
5.40084e-08
1.94285e-05
5.41394e-08
5.34947e-08
1.94297e-05
2.10056e-05
-5.5737e-09
2.10033e-05
-1.39452e-08
2.1e-05
-1.92756e-08
2.09978e-05
-1.24188e-08
2.09955e-05
-1.52993e-09
2.09931e-05
6.64339e-09
2.09908e-05
1.36962e-08
2.09887e-05
2.1656e-08
2.09867e-05
2.82095e-08
2.0985e-05
3.37438e-08
2.09836e-05
3.81543e-08
2.09824e-05
4.20655e-08
2.09816e-05
4.56006e-08
2.09811e-05
4.84368e-08
2.0981e-05
5.07599e-08
2.09812e-05
5.20033e-08
2.09817e-05
5.30115e-08
2.09825e-05
5.31654e-08
2.09836e-05
5.30026e-08
5.21189e-08
2.0985e-05
2.26824e-05
-5.08054e-09
2.26797e-05
-1.12593e-08
2.26762e-05
-1.56865e-08
2.26738e-05
-1.00995e-08
2.26718e-05
4.85722e-10
2.26695e-05
8.97192e-09
2.26675e-05
1.56641e-08
2.26658e-05
2.33807e-08
2.26641e-05
2.99437e-08
2.26626e-05
3.52561e-08
2.26612e-05
3.9463e-08
2.26603e-05
4.3e-08
2.26597e-05
4.61789e-08
2.26596e-05
4.85663e-08
2.26598e-05
5.0575e-08
2.26602e-05
5.15713e-08
2.2661e-05
5.22441e-08
2.2662e-05
5.21125e-08
2.26634e-05
5.16794e-08
5.06069e-08
2.26649e-05
2.44932e-05
-4.34042e-09
2.44907e-05
-8.79826e-09
2.4487e-05
-1.19242e-08
2.44844e-05
-7.51897e-09
2.44825e-05
2.40025e-09
2.44802e-05
1.12424e-08
2.44782e-05
1.76575e-08
2.44769e-05
2.47436e-08
2.44756e-05
3.12536e-08
2.44743e-05
3.6522e-08
2.44733e-05
4.04857e-08
2.44726e-05
4.36431e-08
2.44724e-05
4.6387e-08
2.44725e-05
4.84396e-08
2.4473e-05
5.01275e-08
2.44737e-05
5.08785e-08
2.44747e-05
5.12627e-08
2.44759e-05
5.08769e-08
2.44774e-05
5.02107e-08
4.89561e-08
2.4479e-05
2.64487e-05
-3.47416e-09
2.64464e-05
-6.46256e-09
2.64425e-05
-8.09835e-09
2.64396e-05
-4.60778e-09
2.6438e-05
4.05669e-09
2.64361e-05
1.3155e-08
2.64341e-05
1.96069e-08
2.64329e-05
2.5966e-08
2.64319e-05
3.22e-08
2.6431e-05
3.74428e-08
2.64304e-05
4.1111e-08
2.64301e-05
4.3982e-08
2.64301e-05
4.63131e-08
2.64305e-05
4.80472e-08
2.64312e-05
4.94537e-08
2.64321e-05
4.99242e-08
2.64333e-05
5.00759e-08
2.64348e-05
4.94335e-08
2.64364e-05
4.85928e-08
4.71633e-08
2.64382e-05
2.85604e-05
-2.53506e-09
2.85582e-05
-4.3188e-09
2.85547e-05
-4.6041e-09
2.85517e-05
-1.53363e-09
2.85498e-05
5.95498e-09
2.85482e-05
1.475e-08
2.85465e-05
2.13261e-08
2.85452e-05
2.71751e-08
2.85447e-05
3.27452e-08
2.85442e-05
3.79561e-08
2.85438e-05
4.14492e-08
2.85439e-05
4.39262e-08
2.85442e-05
4.5976e-08
2.8545e-05
4.7278e-08
2.8546e-05
4.84484e-08
2.85473e-05
4.86058e-08
2.85488e-05
4.85745e-08
2.85505e-05
4.7743e-08
2.85524e-05
4.67565e-08
4.52361e-08
2.85543e-05
3.08407e-05
-1.53834e-09
3.08388e-05
-2.46892e-09
3.08356e-05
-1.38432e-09
3.08324e-05
1.6593e-09
3.08304e-05
7.96831e-09
3.08291e-05
1.60866e-08
3.08278e-05
2.26325e-08
3.08268e-05
2.81707e-08
3.08265e-05
3.30119e-08
3.08265e-05
3.79569e-08
3.08266e-05
4.13718e-08
3.0827e-05
4.34914e-08
3.08276e-05
4.54195e-08
3.08286e-05
4.62812e-08
3.08298e-05
4.71767e-08
3.08314e-05
4.70724e-08
3.08331e-05
4.68122e-08
3.0835e-05
4.58554e-08
3.08371e-05
4.47094e-08
4.3132e-08
3.08392e-05
3.33032e-05
-6.21294e-10
3.33014e-05
-6.50984e-10
3.32987e-05
1.30547e-09
3.32957e-05
4.65164e-09
3.32935e-05
1.0112e-08
3.32924e-05
1.72198e-08
3.32915e-05
2.34924e-08
3.32908e-05
2.88758e-08
3.32907e-05
3.31778e-08
3.3291e-05
3.76418e-08
3.32915e-05
4.08607e-08
3.32924e-05
4.26146e-08
3.32934e-05
4.43715e-08
3.32947e-05
4.49703e-08
3.32964e-05
4.55439e-08
3.32982e-05
4.52509e-08
3.33002e-05
4.47787e-08
3.33024e-05
4.37332e-08
3.33046e-05
4.24975e-08
4.0872e-08
3.33068e-05
3.59622e-05
2.72776e-10
3.59604e-05
1.15439e-09
3.59582e-05
3.57068e-09
3.59557e-05
7.16351e-09
3.59537e-05
1.20503e-08
3.59527e-05
1.82425e-08
3.59521e-05
2.40615e-08
3.59518e-05
2.91844e-08
3.5952e-05
3.29793e-08
3.59527e-05
3.69851e-08
3.59536e-05
3.99288e-08
3.59548e-05
4.13983e-08
3.59563e-05
4.29331e-08
3.5958e-05
4.32658e-08
3.59599e-05
4.36098e-08
3.59621e-05
4.30857e-08
3.59643e-05
4.25002e-08
3.59667e-05
4.13415e-08
3.59691e-05
4.00943e-08
3.84481e-08
3.59716e-05
3.88337e-05
1.0423e-09
3.88322e-05
2.66074e-09
3.88301e-05
5.6096e-09
3.88281e-05
9.25404e-09
3.88263e-05
1.37875e-08
3.88253e-05
1.92435e-08
3.88251e-05
2.42506e-08
3.88253e-05
2.90082e-08
3.8826e-05
3.23076e-08
3.88272e-05
3.57871e-08
3.88286e-05
3.85413e-08
3.88302e-05
3.97176e-08
3.88321e-05
4.10823e-08
3.88341e-05
4.12246e-08
3.88363e-05
4.14071e-08
3.88387e-05
4.07026e-08
3.88412e-05
4.00155e-08
3.88438e-05
3.8791e-08
3.88463e-05
3.75145e-08
3.59025e-08
3.88489e-05
4.19345e-05
1.62379e-09
4.1933e-05
4.13306e-09
4.19312e-05
7.42349e-09
4.19294e-05
1.09978e-08
4.19282e-05
1.49722e-08
4.19278e-05
1.96711e-08
4.1928e-05
2.40291e-08
4.19286e-05
2.8393e-08
4.19296e-05
3.13843e-08
4.19311e-05
3.42245e-08
4.19331e-05
3.6604e-08
4.19351e-05
3.76423e-08
4.19374e-05
3.87792e-08
4.19398e-05
3.88279e-08
4.19424e-05
3.88025e-08
4.19451e-05
3.80776e-08
4.19478e-05
3.72662e-08
4.19505e-05
3.60642e-08
4.19533e-05
3.47516e-08
3.32173e-08
4.1956e-05
4.52827e-05
2.1124e-09
4.52815e-05
5.33028e-09
4.528e-05
8.87069e-09
4.52787e-05
1.23248e-08
4.52779e-05
1.57257e-08
4.5278e-05
1.96573e-08
4.52785e-05
2.34455e-08
4.52797e-05
2.72444e-08
4.52811e-05
3.00145e-08
4.5283e-05
3.22879e-08
4.52853e-05
3.42705e-08
4.52878e-05
3.51851e-08
4.52906e-05
3.59724e-08
4.52934e-05
3.59994e-08
4.52964e-05
3.58324e-08
4.52994e-05
3.51082e-08
4.53024e-05
3.42521e-08
4.53054e-05
3.30785e-08
4.53083e-05
3.18183e-08
3.0351e-08
4.53112e-05
4.88982e-05
2.51205e-09
4.88974e-05
6.15134e-09
4.88962e-05
1.00609e-08
4.88954e-05
1.30915e-08
4.88952e-05
1.59651e-08
4.88954e-05
1.94443e-08
4.88964e-05
2.23995e-08
4.88983e-05
2.53999e-08
4.89004e-05
2.78978e-08
4.8903e-05
2.97359e-08
4.89057e-05
3.14883e-08
4.89086e-05
3.23486e-08
4.89116e-05
3.29549e-08
4.89146e-05
3.295e-08
4.89178e-05
3.26313e-08
4.8921e-05
3.19043e-08
4.89243e-05
3.10184e-08
4.89275e-05
2.98746e-08
4.89306e-05
2.86877e-08
2.72953e-08
4.89337e-05
5.28025e-05
2.68411e-09
5.28019e-05
6.77428e-09
5.28012e-05
1.08138e-08
5.28009e-05
1.33519e-08
5.28012e-05
1.56857e-08
5.2802e-05
1.85775e-08
5.28036e-05
2.08222e-08
5.28059e-05
2.31609e-08
5.28084e-05
2.53807e-08
5.28113e-05
2.67816e-08
5.28145e-05
2.82813e-08
5.28178e-05
2.90493e-08
5.28213e-05
2.9458e-08
5.28248e-05
2.94429e-08
5.28284e-05
2.90523e-08
5.28319e-05
2.84166e-08
5.28354e-05
2.75346e-08
5.28388e-05
2.64912e-08
5.28421e-05
2.53764e-08
2.41118e-08
5.28453e-05
5.70184e-05
2.81496e-09
5.70179e-05
7.24653e-09
5.70178e-05
1.09463e-08
5.70183e-05
1.28363e-08
5.70191e-05
1.48924e-08
5.70207e-05
1.70128e-08
5.70228e-05
1.86616e-08
5.70255e-05
2.05061e-08
5.70285e-05
2.24005e-08
5.70317e-05
2.34872e-08
5.70353e-05
2.4744e-08
5.7039e-05
2.53305e-08
5.70429e-05
2.55917e-08
5.70468e-05
2.5539e-08
5.70507e-05
2.51754e-08
5.70545e-05
2.45742e-08
5.70582e-05
2.37941e-08
5.70619e-05
2.28575e-08
5.70654e-05
2.18773e-08
2.07424e-08
5.70687e-05
6.15709e-05
2.88199e-09
6.15712e-05
6.86193e-09
6.15719e-05
1.0321e-08
6.15725e-05
1.2194e-08
6.15738e-05
1.35768e-08
6.15759e-05
1.49895e-08
6.15785e-05
1.60589e-08
6.15816e-05
1.73549e-08
6.15851e-05
1.88915e-08
6.1589e-05
1.96276e-08
6.1593e-05
2.07297e-08
6.15971e-05
2.12044e-08
6.16013e-05
2.13736e-08
6.16056e-05
2.12891e-08
6.16098e-05
2.09314e-08
6.16139e-05
2.04611e-08
6.16179e-05
1.97955e-08
6.16218e-05
1.90222e-08
6.16254e-05
1.82188e-08
1.7319e-08
6.16289e-05
6.64872e-05
2.50316e-09
6.64882e-05
5.8245e-09
6.64897e-05
8.83838e-09
6.64915e-05
1.04305e-08
6.64934e-05
1.16061e-08
6.64958e-05
1.2668e-08
6.64986e-05
1.32609e-08
6.6502e-05
1.39443e-08
6.65055e-05
1.53492e-08
6.65096e-05
1.55702e-08
6.65139e-05
1.63846e-08
6.65183e-05
1.68008e-08
6.65229e-05
1.67724e-08
6.65274e-05
1.67599e-08
6.6532e-05
1.64076e-08
6.65363e-05
1.60884e-08
6.65406e-05
1.55274e-08
6.65447e-05
1.49242e-08
6.65487e-05
1.42535e-08
1.35149e-08
6.65525e-05
7.17955e-05
2.16258e-09
7.17968e-05
4.5355e-09
7.1799e-05
6.60857e-09
7.18017e-05
7.75222e-09
7.18046e-05
8.74616e-09
7.18077e-05
9.5022e-09
7.18111e-05
9.91679e-09
7.18151e-05
9.92769e-09
7.18192e-05
1.12463e-08
7.18235e-05
1.12798e-08
7.18282e-05
1.16893e-08
7.18327e-05
1.22332e-08
7.18374e-05
1.20661e-08
7.18422e-05
1.20529e-08
7.18468e-05
1.17394e-08
7.18515e-05
1.14592e-08
7.18559e-05
1.10736e-08
7.18603e-05
1.05742e-08
7.18644e-05
1.01148e-08
9.55888e-09
7.18684e-05
7.75283e-05
7.75305e-05
7.75336e-05
7.7537e-05
7.75405e-05
7.75444e-05
7.75485e-05
7.75529e-05
7.75578e-05
7.75626e-05
7.75677e-05
7.7573e-05
7.75781e-05
7.75832e-05
7.75882e-05
7.75931e-05
7.75978e-05
7.76023e-05
7.76066e-05
7.76107e-05
3.77714e-06
6.78622e-08
3.68224e-06
9.49021e-08
3.58202e-06
1.00214e-07
3.48352e-06
9.85005e-08
3.38533e-06
9.81895e-08
3.28591e-06
9.94272e-08
3.18462e-06
1.01291e-07
3.08145e-06
1.03169e-07
2.97651e-06
1.04938e-07
2.86985e-06
1.06654e-07
2.76142e-06
1.08434e-07
2.65117e-06
1.10254e-07
2.53904e-06
1.12123e-07
2.42505e-06
1.13995e-07
2.30924e-06
1.15804e-07
2.19172e-06
1.17522e-07
2.07257e-06
1.19149e-07
1.95206e-06
1.20512e-07
1.83063e-06
1.21428e-07
1.70894e-06
1.21695e-07
1.58784e-06
1.21096e-07
1.46858e-06
1.19258e-07
1.35319e-06
1.1539e-07
1.24401e-06
1.09179e-07
1.14431e-06
9.97005e-08
1.05781e-06
8.6498e-08
9.87734e-07
7.00808e-08
9.35231e-07
5.25023e-08
8.98342e-07
3.68893e-08
8.72954e-07
2.53876e-08
8.55135e-07
1.78194e-08
8.42099e-07
1.30357e-08
8.3176e-07
1.03396e-08
8.22812e-07
8.94774e-09
8.14416e-07
8.39631e-09
8.05969e-07
8.44619e-09
7.9713e-07
8.83979e-09
7.87796e-07
9.33352e-09
7.7795e-07
9.84643e-09
7.67639e-07
1.03108e-08
7.5695e-07
1.06889e-08
7.4601e-07
1.09404e-08
7.34969e-07
1.10409e-08
7.23929e-07
1.10399e-08
7.12976e-07
1.09527e-08
7.02129e-07
1.08471e-08
6.91415e-07
1.07145e-08
6.80872e-07
1.05421e-08
6.70518e-07
1.03547e-08
6.60346e-07
1.01717e-08
6.50372e-07
9.97405e-09
6.40633e-07
9.73873e-09
6.31096e-07
9.53697e-09
6.21866e-07
9.23034e-09
6.12896e-07
8.9696e-09
6.04196e-07
8.70067e-09
5.95746e-07
8.45014e-09
5.87498e-07
8.24787e-09
5.79456e-07
8.04195e-09
5.71606e-07
7.84983e-09
5.63978e-07
7.62765e-09
5.5655e-07
7.42875e-09
5.49347e-07
7.2024e-09
5.42406e-07
6.94117e-09
5.35623e-07
6.78314e-09
5.29044e-07
6.57926e-09
5.22574e-07
6.46944e-09
5.16267e-07
6.30752e-09
5.10157e-07
6.10965e-09
5.04172e-07
5.98453e-09
4.98419e-07
5.75343e-09
4.92837e-07
5.58195e-09
4.87349e-07
5.48757e-09
4.82084e-07
5.26561e-09
4.76921e-07
5.16292e-09
4.71937e-07
4.98416e-09
4.67114e-07
4.82261e-09
4.62435e-07
4.67879e-09
4.57949e-07
4.48653e-09
4.53638e-07
4.311e-09
4.49471e-07
4.16648e-09
4.45529e-07
3.94286e-09
4.41682e-07
3.84613e-09
4.38117e-07
3.56525e-09
4.34691e-07
3.426e-09
4.31406e-07
3.28519e-09
4.28374e-07
3.03183e-09
4.25536e-07
2.83819e-09
4.22711e-07
2.8252e-09
4.20182e-07
2.52903e-09
4.17881e-07
2.30046e-09
4.15673e-07
2.20842e-09
4.13517e-07
2.15629e-09
4.11658e-07
1.85818e-09
4.09865e-07
1.79328e-09
4.08209e-07
1.65612e-09
4.06588e-07
1.62137e-09
4.05135e-07
1.45244e-09
4.03527e-07
1.6078e-09
1.93716e-09
4.16689e-06
6.28705e-08
4.17046e-06
9.13264e-08
4.16469e-06
1.05989e-07
4.15454e-06
1.08646e-07
4.14354e-06
1.09192e-07
4.13141e-06
1.11561e-07
4.11699e-06
1.15705e-07
4.09972e-06
1.20447e-07
4.07946e-06
1.25189e-07
4.05622e-06
1.29902e-07
4.02987e-06
1.34782e-07
4.00025e-06
1.39871e-07
3.96719e-06
1.45187e-07
3.9305e-06
1.50686e-07
3.89001e-06
1.56289e-07
3.8456e-06
1.61932e-07
3.79709e-06
1.67664e-07
3.74438e-06
1.73216e-07
3.68745e-06
1.78364e-07
3.62635e-06
1.82789e-07
3.56128e-06
1.86165e-07
3.49261e-06
1.87929e-07
3.42122e-06
1.86786e-07
3.34807e-06
1.82323e-07
3.27455e-06
1.73229e-07
3.20255e-06
1.58493e-07
3.13424e-06
1.38397e-07
3.07114e-06
1.15602e-07
3.01415e-06
9.38757e-08
2.96278e-06
7.67543e-08
2.91554e-06
6.50603e-08
2.87098e-06
5.75971e-08
2.82818e-06
5.31391e-08
2.78646e-06
5.06734e-08
2.74559e-06
4.9262e-08
2.70537e-06
4.8664e-08
2.66557e-06
4.86452e-08
2.62611e-06
4.87885e-08
2.58693e-06
4.90304e-08
2.548e-06
4.92404e-08
2.50932e-06
4.93695e-08
2.47095e-06
4.93056e-08
2.43299e-06
4.90017e-08
2.39555e-06
4.84778e-08
2.35875e-06
4.77612e-08
2.32249e-06
4.7105e-08
2.28689e-06
4.63145e-08
2.25195e-06
4.5479e-08
2.21766e-06
4.46479e-08
2.18413e-06
4.36987e-08
2.1513e-06
4.28008e-08
2.11922e-06
4.18211e-08
2.0879e-06
4.0859e-08
2.05741e-06
3.97209e-08
2.02774e-06
3.86418e-08
1.99887e-06
3.75666e-08
1.9708e-06
3.65185e-08
1.9435e-06
3.55511e-08
1.91689e-06
3.4646e-08
1.891e-06
3.37443e-08
1.86578e-06
3.28482e-08
1.84123e-06
3.19824e-08
1.81736e-06
3.10709e-08
1.79421e-06
3.00935e-08
1.77164e-06
2.93471e-08
1.74967e-06
2.85494e-08
1.72818e-06
2.7957e-08
1.70724e-06
2.72497e-08
1.68682e-06
2.65277e-08
1.66691e-06
2.58941e-08
1.64756e-06
2.51045e-08
1.62872e-06
2.44238e-08
1.61032e-06
2.38847e-08
1.5925e-06
2.30915e-08
1.57509e-06
2.25695e-08
1.55819e-06
2.18815e-08
1.54177e-06
2.12484e-08
1.5259e-06
2.05514e-08
1.51054e-06
1.98405e-08
1.49576e-06
1.90928e-08
1.48143e-06
1.84915e-08
1.46775e-06
1.76292e-08
1.45455e-06
1.70456e-08
1.44205e-06
1.60618e-08
1.43004e-06
1.5443e-08
1.4187e-06
1.46207e-08
1.40788e-06
1.38485e-08
1.39768e-06
1.30396e-08
1.38792e-06
1.25906e-08
1.37898e-06
1.14692e-08
1.37044e-06
1.08367e-08
1.36252e-06
1.01326e-08
1.35492e-06
9.74992e-09
1.34815e-06
8.62876e-09
1.34156e-06
8.3891e-09
1.33565e-06
7.55881e-09
1.32984e-06
7.43263e-09
1.32476e-06
6.53236e-09
1.31949e-06
6.87787e-09
7.26602e-09
4.49904e-06
6.17774e-08
4.5048e-06
8.55701e-08
4.5082e-06
1.02585e-07
4.50752e-06
1.09332e-07
4.50583e-06
1.10877e-07
4.50505e-06
1.12346e-07
4.5049e-06
1.1585e-07
4.50464e-06
1.20708e-07
4.50382e-06
1.26014e-07
4.50228e-06
1.31438e-07
4.5e-06
1.37067e-07
4.49686e-06
1.43007e-07
4.49276e-06
1.49288e-07
4.48754e-06
1.55904e-07
4.48106e-06
1.62772e-07
4.47318e-06
1.69813e-07
4.46376e-06
1.77078e-07
4.45265e-06
1.84328e-07
4.43972e-06
1.91295e-07
4.42482e-06
1.97682e-07
4.40792e-06
2.03065e-07
4.38899e-06
2.06866e-07
4.36796e-06
2.07818e-07
4.34507e-06
2.05207e-07
4.32036e-06
1.97945e-07
4.29415e-06
1.84702e-07
4.26691e-06
1.65629e-07
4.23941e-06
1.4311e-07
4.21262e-06
1.20657e-07
4.18715e-06
1.02233e-07
4.16272e-06
8.94832e-08
4.13871e-06
8.16054e-08
4.11463e-06
7.72283e-08
4.09024e-06
7.50579e-08
4.06537e-06
7.41331e-08
4.04004e-06
7.39947e-08
4.01416e-06
7.45247e-08
3.98768e-06
7.5264e-08
3.96056e-06
7.61528e-08
3.93277e-06
7.70346e-08
3.90432e-06
7.78123e-08
3.87523e-06
7.8402e-08
3.84557e-06
7.86603e-08
3.81537e-06
7.86753e-08
3.78474e-06
7.83939e-08
3.75365e-06
7.8193e-08
3.72211e-06
7.78527e-08
3.69025e-06
7.73424e-08
3.65795e-06
7.69454e-08
3.62537e-06
7.62777e-08
3.59254e-06
7.56359e-08
3.55945e-06
7.49118e-08
3.52626e-06
7.40512e-08
3.49298e-06
7.29975e-08
3.45968e-06
7.19433e-08
3.42641e-06
7.08376e-08
3.39312e-06
6.9803e-08
3.35993e-06
6.87471e-08
3.32673e-06
6.78394e-08
3.29368e-06
6.67971e-08
3.26074e-06
6.57897e-08
3.22797e-06
6.47509e-08
3.19544e-06
6.36019e-08
3.16319e-06
6.23394e-08
3.1312e-06
6.13411e-08
3.09949e-06
6.02622e-08
3.06798e-06
5.94617e-08
3.03684e-06
5.8393e-08
3.00598e-06
5.73821e-08
2.97552e-06
5.63545e-08
2.94548e-06
5.51516e-08
2.91587e-06
5.40343e-08
2.88664e-06
5.31081e-08
2.85796e-06
5.17696e-08
2.82971e-06
5.0824e-08
2.80201e-06
4.95777e-08
2.77479e-06
4.84698e-08
2.74826e-06
4.70805e-08
2.72225e-06
4.58511e-08
2.69705e-06
4.42935e-08
2.67238e-06
4.31638e-08
2.64848e-06
4.15279e-08
2.62532e-06
4.02048e-08
2.6031e-06
3.82832e-08
2.58138e-06
3.71606e-08
2.56086e-06
3.51434e-08
2.54103e-06
3.36742e-08
2.52203e-06
3.20481e-08
2.50372e-06
3.0894e-08
2.48683e-06
2.83657e-08
2.47036e-06
2.73069e-08
2.45498e-06
2.55091e-08
2.44017e-06
2.45561e-08
2.42672e-06
2.20809e-08
2.41353e-06
2.15845e-08
2.40162e-06
1.94658e-08
2.38989e-06
1.91569e-08
2.37948e-06
1.6948e-08
2.36898e-06
1.73733e-08
1.71022e-08
4.85959e-06
6.19798e-08
4.86392e-06
8.12333e-08
4.86846e-06
9.80512e-08
4.86965e-06
1.0814e-07
4.86883e-06
1.11698e-07
4.8685e-06
1.12673e-07
4.86899e-06
1.15357e-07
4.87019e-06
1.19514e-07
4.87158e-06
1.24621e-07
4.87287e-06
1.30152e-07
4.87402e-06
1.35917e-07
4.87505e-06
1.41973e-07
4.87599e-06
1.4835e-07
4.8768e-06
1.55091e-07
4.87747e-06
1.62106e-07
4.87797e-06
1.69314e-07
4.87831e-06
1.76741e-07
4.87843e-06
1.842e-07
4.87835e-06
1.91379e-07
4.878e-06
1.98033e-07
4.87739e-06
2.03676e-07
4.87647e-06
2.07787e-07
4.87501e-06
2.09276e-07
4.87286e-06
2.07353e-07
4.86978e-06
2.01026e-07
4.86537e-06
1.89111e-07
4.85931e-06
1.71692e-07
4.85174e-06
1.50677e-07
4.84329e-06
1.2911e-07
4.83473e-06
1.10792e-07
4.82643e-06
9.77842e-08
4.8182e-06
8.98358e-08
4.80978e-06
8.56446e-08
4.8011e-06
8.37402e-08
4.79199e-06
8.32429e-08
4.78253e-06
8.34537e-08
4.77275e-06
8.4308e-08
4.76257e-06
8.54461e-08
4.75194e-06
8.67788e-08
4.74081e-06
8.8163e-08
4.72917e-06
8.94588e-08
4.71696e-06
9.06056e-08
4.70419e-06
9.14297e-08
4.69086e-06
9.20094e-08
4.67694e-06
9.23098e-08
4.66248e-06
9.26548e-08
4.64738e-06
9.29502e-08
4.63175e-06
9.29793e-08
4.61548e-06
9.32167e-08
4.59858e-06
9.31748e-08
4.5811e-06
9.31104e-08
4.56297e-06
9.30495e-08
4.54426e-06
9.27598e-08
4.525e-06
9.22529e-08
4.50519e-06
9.17554e-08
4.48495e-06
9.10807e-08
4.46415e-06
9.06048e-08
4.44293e-06
8.99637e-08
4.42113e-06
8.96368e-08
4.39889e-06
8.90385e-08
4.37615e-06
8.85344e-08
4.35293e-06
8.79623e-08
4.32932e-06
8.72178e-08
4.3053e-06
8.63537e-08
4.2809e-06
8.57427e-08
4.25618e-06
8.49847e-08
4.231e-06
8.46461e-08
4.2056e-06
8.37853e-08
4.17979e-06
8.31985e-08
4.15375e-06
8.23902e-08
4.12748e-06
8.14239e-08
4.10099e-06
8.05246e-08
4.07429e-06
7.98052e-08
4.04753e-06
7.85332e-08
4.02053e-06
7.78178e-08
3.99364e-06
7.64689e-08
3.96652e-06
7.55887e-08
3.93965e-06
7.39544e-08
3.91273e-06
7.27737e-08
3.88608e-06
7.09403e-08
3.85954e-06
6.97044e-08
3.83334e-06
6.77263e-08
3.8073e-06
6.62447e-08
3.782e-06
6.35854e-08
3.75668e-06
6.24772e-08
3.73222e-06
5.96015e-08
3.70819e-06
5.77052e-08
3.68481e-06
5.54298e-08
3.66167e-06
5.40369e-08
3.63994e-06
5.00936e-08
3.61839e-06
4.88609e-08
3.59787e-06
4.60292e-08
3.57773e-06
4.46938e-08
3.55907e-06
4.07378e-08
3.54048e-06
4.01782e-08
3.52337e-06
3.65783e-08
3.50635e-06
3.61702e-08
3.49087e-06
3.24331e-08
3.4753e-06
3.29459e-08
3.14666e-08
5.24936e-06
6.23052e-08
5.25254e-06
7.80508e-08
5.25656e-06
9.40367e-08
5.25895e-06
1.05741e-07
5.25925e-06
1.114e-07
5.2589e-06
1.13021e-07
5.25908e-06
1.15178e-07
5.26012e-06
1.18474e-07
5.2617e-06
1.23047e-07
5.26334e-06
1.28509e-07
5.26491e-06
1.34349e-07
5.26645e-06
1.40428e-07
5.26801e-06
1.4679e-07
5.26961e-06
1.5349e-07
5.27127e-06
1.60454e-07
5.27302e-06
1.67564e-07
5.2749e-06
1.74858e-07
5.27695e-06
1.82148e-07
5.2792e-06
1.8913e-07
5.2817e-06
1.95533e-07
5.28447e-06
2.00904e-07
5.28751e-06
2.04748e-07
5.29061e-06
2.06174e-07
5.29361e-06
2.04357e-07
5.29618e-06
1.98454e-07
5.29785e-06