/*--------------------------------*- C++ -*----------------------------------*\
| =========                 |                                                 |
| \\      /  F ield         | OpenFOAM: The Open Source CFD Toolbox           |
|  \\    /   O peration     | Version:  v2106                                 |
|   \\  /    A nd           | Website:  www.openfoam.com                      |
|    \\/     M anipulation  |                                                 |
\*---------------------------------------------------------------------------*/
FoamFile
{
    version     2.0;
    format      ascii;
    arch        "LSB;label=32;scalar=64";
    class       volVectorField;
    location    "1.2";
    object      U;
}
// * * * * * * * * * * * * * * * * * * * * * * * * * * * * * * * * * * * * * //

dimensions      [0 1 -1 0 0 0 0];

internalField   nonuniform List<vector> 
4800
(
(0.960672 2.72852e-05 0)
(1.03881 -0.00041305 0)
(0.963897 0.000178408 0)
(1.03521 -0.000351374 0)
(0.967434 0.000208072 0)
(1.03194 -0.000447373 0)
(0.970699 0.000141228 0)
(1.02861 -0.000397881 0)
(0.97371 0.000256976 0)
(1.02555 -0.000229735 0)
(0.976745 0.000357848 0)
(1.02272 -0.000194513 0)
(0.979391 0.000361248 0)
(1.01989 -0.000189451 0)
(0.981591 0.00038906 0)
(1.01713 -0.000136669 0)
(0.983374 0.000304733 0)
(1.01417 -0.000115641 0)
(0.98441 0.000445354 0)
(1.011 0.000760554 0)
(0.982969 -4.15934e-05 0)
(1.01456 -0.000376428 0)
(0.986576 0.000143052 0)
(1.01124 -0.000328535 0)
(0.989962 0.000179472 0)
(1.00859 -0.000443455 0)
(0.992631 0.000128842 0)
(1.00623 -0.000410801 0)
(0.99465 0.000250988 0)
(1.00441 -0.000265673 0)
(0.996397 0.000347216 0)
(1.00303 -0.000247084 0)
(0.997584 0.000342108 0)
(1.0018 -0.000238843 0)
(0.998238 0.000376569 0)
(1.00067 -0.000156418 0)
(0.998438 0.000375803 0)
(0.999369 0.000112887 0)
(0.998107 0.00110262 0)
(0.997992 0.00192823 0)
(0.996081 5.96682e-05 0)
(1.00266 -0.00042689 0)
(0.997322 0.000194869 0)
(1.00167 -0.000365817 0)
(0.998495 0.000191703 0)
(1.00118 -0.000421852 0)
(0.999214 0.000103202 0)
(1.00067 -0.000345639 0)
(0.999553 0.000156726 0)
(1.0004 -0.00015009 0)
(0.999896 0.000179312 0)
(1.0003 -7.9078e-05 0)
(0.999977 0.000142041 0)
(1.00008 -7.71346e-05 0)
(0.9998 0.000144039 0)
(0.999721 8.2716e-05 0)
(0.999412 0.000274884 0)
(0.999081 0.000665432 0)
(0.998763 0.00145316 0)
(0.998334 0.00244301 0)
(0.999506 2.21641e-05 0)
(1.00023 -0.000436235 0)
(0.999683 0.000161802 0)
(1.00019 -0.000349034 0)
(1.00008 0.00013883 0)
(1.00036 -0.000374723 0)
(1.00026 2.83225e-05 0)
(1.00026 -0.000258915 0)
(1.00024 5.70328e-05 0)
(1.00025 -4.15871e-05 0)
(1.00034 6.52361e-05 0)
(1.0003 -2.68785e-05 0)
(1.00027 3.19436e-05 0)
(1.00017 -3.65903e-05 0)
(1.00004 7.43863e-05 0)
(0.999877 0.000198389 0)
(0.999672 0.000376502 0)
(0.999378 0.00099183 0)
(0.999133 0.00178198 0)
(0.998743 0.00264133 0)
(1.00003 5.03889e-05 0)
(0.999976 -0.000410285 0)
(1.00002 0.000128916 0)
(1.00009 -0.000304814 0)
(1.0003 7.27754e-05 0)
(1.00036 -0.000293838 0)
(1.00043 -5.76253e-05 0)
(1.00031 -0.000167026 0)
(1.00037 -2.73271e-05 0)
(1.00033 -3.47979e-05 0)
(1.00045 -4.85463e-06 0)
(1.00038 -5.69532e-05 0)
(1.00037 -3.12041e-05 0)
(1.00026 -2.15343e-05 0)
(1.00016 5.25088e-05 0)
(1 0.000286759 0)
(0.99986 0.000627485 0)
(0.999634 0.00139611 0)
(0.999418 0.00211308 0)
(0.999042 0.00284682 0)
(1.00008 3.33484e-05 0)
(0.999973 -0.000391869 0)
(1.00008 5.60076e-05 0)
(1.0001 -0.000249496 0)
(1.00033 -2.16914e-05 0)
(1.00036 -0.000208089 0)
(1.00046 -0.000147306 0)
(1.00033 -0.000131451 0)
(1.00041 -7.76925e-05 0)
(1.00036 -5.80245e-05 0)
(1.00048 -6.01003e-05 0)
(1.0004 -7.15596e-05 0)
(1.00041 -5.35404e-05 0)
(1.00029 -2.24974e-05 0)
(1.00023 0.0001087 0)
(1.0001 0.000494386 0)
(1.00003 0.00106286 0)
(0.999821 0.00174872 0)
(0.999612 0.00232763 0)
(0.999248 0.00294316 0)
(1.00007 3.42981e-05 0)
(0.999984 -0.000350722 0)
(1.00009 -8.82732e-06 0)
(1.0001 -0.000190554 0)
(1.00033 -8.78098e-05 0)
(1.00037 -0.000167791 0)
(1.00046 -0.000164549 0)
(1.00035 -0.000143371 0)
(1.00042 -0.000131181 0)
(1.00037 -8.00814e-05 0)
(1.00049 -0.000114816 0)
(1.00042 -8.08209e-05 0)
(1.00043 -8.72902e-05 0)
(1.00032 2.75906e-05 0)
(1.0003 0.000314094 0)
(1.00023 0.000890712 0)
(1.00017 0.00141153 0)
(0.999962 0.0019162 0)
(0.999762 0.0024027 0)
(0.999426 0.00295218 0)
(1.00005 2.94498e-05 0)
(1.00001 -0.000312406 0)
(1.00009 -8.40862e-05 0)
(1.00012 -0.000178145 0)
(1.00033 -0.00010102 0)
(1.00038 -0.000218054 0)
(1.00045 -0.000152842 0)
(1.00035 -0.000182074 0)
(1.00042 -0.000171949 0)
(1.00039 -0.000137905 0)
(1.0005 -0.000127503 0)
(1.00043 -9.75226e-05 0)
(1.00044 -8.16456e-06 0)
(1.00039 0.000229071 0)
(1.00041 0.00072198 0)
(1.00035 0.00118648 0)
(1.00028 0.00156108 0)
(1.00009 0.0019592 0)
(0.999906 0.00242161 0)
(0.999609 0.00294861 0)
(1.00004 1.72498e-05 0)
(1.00002 -0.000268405 0)
(1.00009 -0.000122843 0)
(1.00013 -0.000195669 0)
(1.00032 -0.000101254 0)
(1.00039 -0.000223163 0)
(1.00045 -0.000227389 0)
(1.00037 -0.000177285 0)
(1.00041 -0.000228049 0)
(1.0004 -0.000159913 0)
(1.0005 -0.000156408 0)
(1.00046 -6.64344e-05 0)
(1.00049 0.000180679 0)
(1.00049 0.000591108 0)
(1.00051 0.0009814 0)
(1.00044 0.001302 0)
(1.00037 0.0015988 0)
(1.00022 0.00197609 0)
(1.00006 0.00243913 0)
(0.999803 0.0029544 0)
(1.00003 2.56007e-05 0)
(1.00003 -0.000268604 0)
(1.00009 -0.000113114 0)
(1.00015 -0.000260448 0)
(1.00032 -0.000121685 0)
(1.00039 -0.00024068 0)
(1.00044 -0.000261671 0)
(1.00038 -0.000250263 0)
(1.00041 -0.000230548 0)
(1.00042 -0.000211876 0)
(1.00051 -0.000105134 0)
(1.00051 9.31659e-05 0)
(1.00057 0.000491671 0)
(1.00058 0.000833936 0)
(1.00057 0.00109734 0)
(1.00052 0.00135178 0)
(1.00046 0.00165143 0)
(1.00036 0.00203309 0)
(1.00022 0.00249243 0)
(1 0.00299154 0)
(1.00003 2.1628e-06 0)
(1.00003 -0.000206213 0)
(1.00009 -0.000138713 0)
(1.00016 -0.000252115 0)
(1.00032 -0.000237307 0)
(1.00039 -0.000214671 0)
(1.00044 -0.000312449 0)
(1.00039 -0.000268652 0)
(1.00041 -0.000267867 0)
(1.00044 -0.000153003 0)
(1.00055 4.79583e-05 0)
(1.0006 0.000389034 0)
(1.00064 0.000687884 0)
(1.00064 0.000918331 0)
(1.00063 0.00112482 0)
(1.00061 0.00138649 0)
(1.00057 0.00170367 0)
(1.0005 0.0020906 0)
(1.0004 0.00253511 0)
(1.0002 0.00300885 0)
(1.00002 1.50325e-05 0)
(1.00004 -0.000214482 0)
(1.00009 -0.000127111 0)
(1.00016 -0.000268879 0)
(1.00032 -0.000318982 0)
(1.00039 -0.00029586 0)
(1.00044 -0.000305434 0)
(1.00039 -0.000289543 0)
(1.00043 -0.000250917 0)
(1.00048 -8.10034e-06 0)
(1.00061 0.000304059 0)
(1.00066 0.000558507 0)
(1.00069 0.000758799 0)
(1.0007 0.000943956 0)
(1.0007 0.00116558 0)
(1.0007 0.00144627 0)
(1.00069 0.00178133 0)
(1.00066 0.00216432 0)
(1.00058 0.00258909 0)
(1.0004 0.0030308 0)
(1.00002 -9.0111e-06 0)
(1.00004 -0.00017261 0)
(1.0001 -0.000169915 0)
(1.00015 -0.000225989 0)
(1.00032 -0.000395988 0)
(1.00039 -0.000391768 0)
(1.00044 -0.000337409 0)
(1.0004 -0.00023549 0)
(1.00047 -0.000108539 0)
(1.00055 0.000167714 0)
(1.00067 0.000427174 0)
(1.00071 0.000615744 0)
(1.00074 0.000784141 0)
(1.00076 0.000982592 0)
(1.00079 0.00122456 0)
(1.00081 0.00152108 0)
(1.00082 0.00185788 0)
(1.00081 0.00222955 0)
(1.00076 0.00263121 0)
(1.0006 0.0030404 0)
(1.00002 1.53137e-07 0)
(1.00003 -0.000173595 0)
(1.0001 -0.000189043 0)
(1.00014 -0.000239256 0)
(1.0003 -0.000387206 0)
(1.0004 -0.000465446 0)
(1.00046 -0.00039975 0)
(1.00044 -0.00013871 0)
(1.00052 0.000123188 0)
(1.0006 0.00031797 0)
(1.00072 0.000487263 0)
(1.00075 0.000656559 0)
(1.00079 0.000827941 0)
(1.00082 0.00104188 0)
(1.00088 0.00129573 0)
(1.00092 0.00159192 0)
(1.00096 0.00192093 0)
(1.00098 0.00227638 0)
(1.00094 0.00265291 0)
(1.0008 0.00303063 0)
(1.00002 -1.88636e-05 0)
(1.00004 -0.000156113 0)
(1.0001 -0.000220059 0)
(1.00013 -0.000271234 0)
(1.00029 -0.000365205 0)
(1.0004 -0.000427617 0)
(1.0005 -0.000379501 0)
(1.00051 -7.59428e-05 0)
(1.00057 0.000219174 0)
(1.00064 0.000401837 0)
(1.00076 0.000545695 0)
(1.0008 0.00070664 0)
(1.00086 0.000891116 0)
(1.00091 0.00111255 0)
(1.00098 0.00137051 0)
(1.00105 0.00165857 0)
(1.00111 0.00197759 0)
(1.00114 0.00231555 0)
(1.00113 0.00266847 0)
(1.00099 0.00301852 0)
(1.00002 -1.69305e-05 0)
(1.00004 -0.000180907 0)
(1.0001 -0.000216511 0)
(1.00013 -0.000312506 0)
(1.00029 -0.000352655 0)
(1.0004 -0.000324321 0)
(1.00053 -0.000256674 0)
(1.00056 -4.57999e-05 0)
(1.00063 0.000208546 0)
(1.00069 0.000422498 0)
(1.00081 0.000590394 0)
(1.00086 0.000764035 0)
(1.00093 0.000958903 0)
(1.00099 0.00118077 0)
(1.00108 0.00143416 0)
(1.00117 0.00171244 0)
(1.00125 0.00202084 0)
(1.00131 0.00234226 0)
(1.00131 0.00267439 0)
(1.00119 0.00299906 0)
(1.00002 -2.51557e-05 0)
(1.00003 -0.000209405 0)
(1.00011 -0.00024075 0)
(1.00013 -0.000294557 0)
(1.00031 -0.000365663 0)
(1.00043 -0.000238904 0)
(1.00057 -0.000131158 0)
(1.00062 2.62566e-05 0)
(1.0007 0.000238904 0)
(1.00075 0.000457824 0)
(1.00087 0.000639147 0)
(1.00092 0.000824412 0)
(1.00101 0.0010218 0)
(1.00108 0.00124113 0)
(1.00119 0.00148886 0)
(1.0013 0.00175918 0)
(1.00141 0.00205518 0)
(1.00148 0.00236054 0)
(1.0015 0.00267158 0)
(1.00139 0.00297284 0)
(1.00002 -3.23249e-05 0)
(1.00004 -0.000218899 0)
(1.00012 -0.000276096 0)
(1.00013 -0.000261075 0)
(1.00033 -0.000325328 0)
(1.00047 -0.000204028 0)
(1.00062 -3.12394e-05 0)
(1.00067 0.000131429 0)
(1.00076 0.000305046 0)
(1.00082 0.000496714 0)
(1.00094 0.000674513 0)
(1.001 0.000866487 0)
(1.0011 0.00106974 0)
(1.00119 0.00129061 0)
(1.00132 0.00153472 0)
(1.00145 0.00179611 0)
(1.00158 0.00207974 0)
(1.00167 0.00236721 0)
(1.0017 0.00265855 0)
(1.0016 0.00293786 0)
(1.00002 -4.56614e-05 0)
(1.00004 -0.000209297 0)
(1.00014 -0.000318864 0)
(1.00015 -0.000240011 0)
(1.00035 -0.000239704 0)
(1.00052 -0.000150147 0)
(1.00068 2.29335e-05 0)
(1.00073 0.000205021 0)
(1.00082 0.000363492 0)
(1.00089 0.000541562 0)
(1.00102 0.00071479 0)
(1.00108 0.000908388 0)
(1.0012 0.00111674 0)
(1.00131 0.00133674 0)
(1.00146 0.00157887 0)
(1.0016 0.00183037 0)
(1.00175 0.00210116 0)
(1.00185 0.00237208 0)
(1.0019 0.00264356 0)
(1.0018 0.00290229 0)
(1.00002 -5.15614e-05 0)
(1.00003 -0.000207985 0)
(1.00016 -0.000330305 0)
(1.00019 -0.000238255 0)
(1.00038 -0.000158822 0)
(1.00057 -7.52371e-05 0)
(1.00074 6.38895e-05 0)
(1.0008 0.000246273 0)
(1.00089 0.000409393 0)
(1.00096 0.000582238 0)
(1.00111 0.000757357 0)
(1.00118 0.000947273 0)
(1.00131 0.00115675 0)
(1.00143 0.00137536 0)
(1.0016 0.00161187 0)
(1.00176 0.00185424 0)
(1.00192 0.00210972 0)
(1.00204 0.00236457 0)
(1.0021 0.00261724 0)
(1.002 0.00285575 0)
(1.00002 -5.53633e-05 0)
(1.00003 -0.00020249 0)
(1.00018 -0.000318318 0)
(1.00023 -0.000228561 0)
(1.00042 -0.000106582 0)
(1.00062 -5.58829e-06 0)
(1.00081 0.000121844 0)
(1.00086 0.000296227 0)
(1.00097 0.00045886 0)
(1.00104 0.000627246 0)
(1.0012 0.00079862 0)
(1.00129 0.000990229 0)
(1.00143 0.00119695 0)
(1.00156 0.00141175 0)
(1.00175 0.00164174 0)
(1.00193 0.00187026 0)
(1.00211 0.00211157 0)
(1.00224 0.0023465 0)
(1.0023 0.00258321 0)
(1.00222 0.00280152 0)
(1.00003 -5.80982e-05 0)
(1.00003 -0.000186965 0)
(1.0002 -0.000289924 0)
(1.00028 -0.000205596 0)
(1.00048 -7.16819e-05 0)
(1.00067 4.61125e-05 0)
(1.00087 0.000171032 0)
(1.00094 0.000341364 0)
(1.00105 0.000505915 0)
(1.00113 0.000669473 0)
(1.0013 0.000835934 0)
(1.0014 0.00102393 0)
(1.00156 0.00122792 0)
(1.00171 0.0014366 0)
(1.00191 0.0016606 0)
(1.0021 0.00187782 0)
(1.00229 0.00210563 0)
(1.00243 0.00232295 0)
(1.00251 0.00254313 0)
(1.00242 0.00274416 0)
(1.00002 -5.70319e-05 0)
(1.00003 -0.000164359 0)
(1.00023 -0.000253481 0)
(1.00033 -0.000177824 0)
(1.00054 -3.5703e-05 0)
(1.00073 8.49154e-05 0)
(1.00095 0.000208624 0)
(1.00102 0.000375475 0)
(1.00114 0.000545669 0)
(1.00122 0.000711501 0)
(1.0014 0.000872564 0)
(1.00152 0.00105448 0)
(1.00169 0.00125577 0)
(1.00186 0.00145705 0)
(1.00207 0.00167272 0)
(1.00227 0.00187777 0)
(1.00248 0.00209131 0)
(1.00263 0.00229069 0)
(1.00271 0.0024933 0)
(1.00263 0.00267727 0)
(1.00003 -5.37619e-05 0)
(1.00003 -0.000138284 0)
(1.00025 -0.000208961 0)
(1.00038 -0.000146728 0)
(1.0006 -6.04239e-06 0)
(1.00079 0.000119807 0)
(1.00102 0.000243395 0)
(1.00111 0.000406855 0)
(1.00123 0.000578213 0)
(1.00132 0.000750008 0)
(1.00151 0.000909779 0)
(1.00165 0.00108218 0)
(1.00183 0.00127526 0)
(1.00201 0.00146785 0)
(1.00224 0.00167463 0)
(1.00245 0.00186711 0)
(1.00267 0.00206754 0)
(1.00283 0.00225129 0)
(1.00292 0.0024371 0)
(1.00284 0.00260445 0)
(1.00003 -4.82902e-05 0)
(1.00004 -0.000109017 0)
(1.00028 -0.000163306 0)
(1.00044 -0.000117069 0)
(1.00067 2.06242e-05 0)
(1.00085 0.000159549 0)
(1.00109 0.000277045 0)
(1.00119 0.000435265 0)
(1.00133 0.000604614 0)
(1.00142 0.000775402 0)
(1.00162 0.000939242 0)
(1.00177 0.00110308 0)
(1.00198 0.00128809 0)
(1.00217 0.00147236 0)
(1.00241 0.00166639 0)
(1.00263 0.00184674 0)
(1.00286 0.002031 0)
(1.00302 0.00220116 0)
(1.00312 0.00237006 0)
(1.00304 0.00252318 0)
(1.00003 -3.96989e-05 0)
(1.00005 -8.43126e-05 0)
(1.00029 -0.000116684 0)
(1.00048 -7.75276e-05 0)
(1.00073 4.4974e-05 0)
(1.00092 0.000190639 0)
(1.00116 0.000311451 0)
(1.00129 0.000456612 0)
(1.00143 0.000624494 0)
(1.00152 0.00079691 0)
(1.00173 0.000958782 0)
(1.0019 0.00111713 0)
(1.00213 0.00129069 0)
(1.00233 0.00146617 0)
(1.00258 0.00164915 0)
(1.00281 0.0018196 0)
(1.00304 0.0019912 0)
(1.00321 0.00214563 0)
(1.00331 0.00230006 0)
(1.00323 0.00243638 0)
(1.00003 -3.08362e-05 0)
(1.00005 -5.88917e-05 0)
(1.0003 -7.24482e-05 0)
(1.00053 -3.82706e-05 0)
(1.0008 6.81191e-05 0)
(1.00099 0.00021454 0)
(1.00124 0.000345037 0)
(1.00137 0.000479903 0)
(1.00153 0.000638596 0)
(1.00163 0.000809808 0)
(1.00185 0.000967648 0)
(1.00202 0.00112479 0)
(1.00226 0.0012875 0)
(1.00248 0.00144885 0)
(1.00274 0.0016197 0)
(1.00298 0.00177651 0)
(1.00322 0.00193768 0)
(1.0034 0.00207693 0)
(1.00351 0.00221913 0)
(1.00343 0.0023411 0)
(1.00002 -2.06201e-05 0)
(1.00007 -3.64323e-05 0)
(1.00033 -3.43712e-05 0)
(1.00056 1.35036e-06 0)
(1.00085 9.83701e-05 0)
(1.00105 0.000235748 0)
(1.00131 0.000369748 0)
(1.00146 0.000505362 0)
(1.00164 0.000646255 0)
(1.00175 0.00081265 0)
(1.00197 0.000967916 0)
(1.00216 0.00111836 0)
(1.0024 0.00127981 0)
(1.00263 0.0014224 0)
(1.0029 0.00158385 0)
(1.00314 0.00172365 0)
(1.00339 0.00187253 0)
(1.00357 0.00200033 0)
(1.00368 0.00212778 0)
(1.0036 0.00223956 0)
(1.00003 -1.0672e-05 0)
(1.00007 -1.81997e-05 0)
(1.00034 1.73591e-06 0)
(1.00059 4.45581e-05 0)
(1.00091 0.000129441 0)
(1.00112 0.000255168 0)
(1.00138 0.000383963 0)
(1.00154 0.00051866 0)
(1.00174 0.000653623 0)
(1.00186 0.000811559 0)
(1.00208 0.000962708 0)
(1.00228 0.00110072 0)
(1.00253 0.00125607 0)
(1.00278 0.00138989 0)
(1.00306 0.00153655 0)
(1.00331 0.00166579 0)
(1.00356 0.00179814 0)
(1.00374 0.00191586 0)
(1.00385 0.00202902 0)
(1.00378 0.00212876 0)
(1.00003 -2.00091e-06 0)
(1.00007 4.0255e-06 0)
(1.00035 3.05504e-05 0)
(1.00062 7.8099e-05 0)
(1.00096 0.000157386 0)
(1.00118 0.000273061 0)
(1.00145 0.00039801 0)
(1.00162 0.000527123 0)
(1.00183 0.000654531 0)
(1.00197 0.000800961 0)
(1.00219 0.000943852 0)
(1.0024 0.0010767 0)
(1.00266 0.00121943 0)
(1.00291 0.00134418 0)
(1.0032 0.00147668 0)
(1.00346 0.00159356 0)
(1.00372 0.0017128 0)
(1.0039 0.00181825 0)
(1.00401 0.00192181 0)
(1.00394 0.00200956 0)
(1.00002 7.35205e-06 0)
(1.00009 2.10535e-05 0)
(1.00036 5.35005e-05 0)
(1.00065 0.000108432 0)
(1.001 0.000184648 0)
(1.00124 0.000286531 0)
(1.00151 0.000405158 0)
(1.00169 0.000530889 0)
(1.00192 0.000644395 0)
(1.00208 0.0007843 0)
(1.00231 0.000919109 0)
(1.00253 0.00104022 0)
(1.00279 0.00117472 0)
(1.00305 0.00128479 0)
(1.00334 0.0014087 0)
(1.0036 0.00150941 0)
(1.00386 0.00161958 0)
(1.00405 0.00171095 0)
(1.00416 0.00180545 0)
(1.00408 0.00188359 0)
(1.00002 1.33607e-05 0)
(1.00009 3.64904e-05 0)
(1.00038 7.85495e-05 0)
(1.00066 0.000132324 0)
(1.00103 0.000204567 0)
(1.00129 0.000300596 0)
(1.00159 0.00040188 0)
(1.00177 0.000524101 0)
(1.00201 0.00063113 0)
(1.00218 0.000751816 0)
(1.00241 0.000882322 0)
(1.00264 0.000991367 0)
(1.00291 0.00111703 0)
(1.00317 0.00121978 0)
(1.00347 0.00133118 0)
(1.00373 0.00142254 0)
(1.004 0.0015178 0)
(1.00418 0.00159951 0)
(1.0043 0.00168004 0)
(1.00422 0.00175051 0)
(1.00002 1.85001e-05 0)
(1.0001 5.2785e-05 0)
(1.00038 9.72303e-05 0)
(1.00069 0.000150515 0)
(1.00105 0.000217634 0)
(1.00134 0.000304078 0)
(1.00164 0.000398511 0)
(1.00184 0.000506996 0)
(1.00208 0.00060971 0)
(1.00227 0.000718753 0)
(1.0025 0.000835639 0)
(1.00274 0.00093359 0)
(1.00302 0.00104258 0)
(1.00329 0.0011379 0)
(1.00359 0.0012358 0)
(1.00385 0.00132053 0)
(1.00413 0.00140421 0)
(1.00431 0.00147871 0)
(1.00442 0.00154855 0)
(1.00434 0.00161107 0)
(1.00002 2.33085e-05 0)
(1.0001 6.25853e-05 0)
(1.0004 0.000111738 0)
(1.0007 0.000166678 0)
(1.00108 0.000225559 0)
(1.00137 0.000299989 0)
(1.00169 0.000386413 0)
(1.00189 0.000482546 0)
(1.00215 0.000575445 0)
(1.00236 0.000672416 0)
(1.0026 0.00077572 0)
(1.00284 0.000868997 0)
(1.00313 0.00096405 0)
(1.00339 0.00104873 0)
(1.00369 0.00113336 0)
(1.00396 0.00120726 0)
(1.00423 0.001281 0)
(1.00441 0.00134427 0)
(1.00453 0.00140717 0)
(1.00445 0.00145956 0)
(1.00002 2.62291e-05 0)
(1.00011 6.97933e-05 0)
(1.0004 0.000125138 0)
(1.00071 0.000172869 0)
(1.00109 0.000225793 0)
(1.00139 0.000295808 0)
(1.00173 0.00036116 0)
(1.00195 0.000442321 0)
(1.00221 0.000529603 0)
(1.00243 0.000608187 0)
(1.00268 0.000702941 0)
(1.00292 0.000787941 0)
(1.00322 0.000873821 0)
(1.00348 0.000951177 0)
(1.00379 0.00102369 0)
(1.00405 0.00108964 0)
(1.00433 0.00115084 0)
(1.00451 0.00120554 0)
(1.00462 0.00125831 0)
(1.00454 0.00130244 0)
(1.00002 2.65349e-05 0)
(1.00011 7.76989e-05 0)
(1.0004 0.000131625 0)
(1.00072 0.000170159 0)
(1.0011 0.00021576 0)
(1.00141 0.000277803 0)
(1.00175 0.000334059 0)
(1.00199 0.000397293 0)
(1.00226 0.000476124 0)
(1.00249 0.000545741 0)
(1.00275 0.000624065 0)
(1.003 0.000695743 0)
(1.0033 0.000766376 0)
(1.00356 0.000835221 0)
(1.00387 0.00089508 0)
(1.00413 0.000953729 0)
(1.00441 0.00100447 0)
(1.00459 0.00105285 0)
(1.0047 0.00109725 0)
(1.00462 0.00113551 0)
(1.00001 2.89652e-05 0)
(1.00011 7.76465e-05 0)
(1.0004 0.000126488 0)
(1.00071 0.000165505 0)
(1.0011 0.000207283 0)
(1.00142 0.000247111 0)
(1.00177 0.000294227 0)
(1.00202 0.000349397 0)
(1.00231 0.00040907 0)
(1.00254 0.000466563 0)
(1.00281 0.000534019 0)
(1.00306 0.000594591 0)
(1.00336 0.000653684 0)
(1.00363 0.000709474 0)
(1.00394 0.000761319 0)
(1.0042 0.000808396 0)
(1.00448 0.000852831 0)
(1.00466 0.000890052 0)
(1.00477 0.000928532 0)
(1.00468 0.000958221 0)
(1.00001 2.69555e-05 0)
(1.00011 6.89695e-05 0)
(1.00039 0.000114681 0)
(1.00071 0.000147748 0)
(1.0011 0.000178003 0)
(1.00142 0.000211288 0)
(1.00178 0.000241331 0)
(1.00204 0.000283687 0)
(1.00233 0.000334405 0)
(1.00258 0.000370978 0)
(1.00285 0.000428536 0)
(1.0031 0.000474914 0)
(1.00341 0.000519953 0)
(1.00368 0.000563426 0)
(1.00399 0.000602036 0)
(1.00425 0.00064306 0)
(1.00453 0.00067533 0)
(1.00471 0.000707147 0)
(1.00482 0.000734757 0)
(1.00473 0.000759564 0)
(1.00001 2.47344e-05 0)
(1.00011 6.16169e-05 0)
(1.00038 0.000100862 0)
(1.00069 0.000128184 0)
(1.00109 0.000154503 0)
(1.00141 0.000186046 0)
(1.00177 0.000211135 0)
(1.00206 0.000232358 0)
(1.00234 0.000285268 0)
(1.0026 0.000310793 0)
(1.0029 0.000351524 0)
(1.00314 0.000397748 0)
(1.00345 0.000427759 0)
(1.00371 0.00046606 0)
(1.00403 0.000493976 0)
(1.00429 0.000527153 0)
(1.00456 0.00055383 0)
(1.00474 0.000578656 0)
(1.00485 0.000601634 0)
(1.00477 0.0006204 0)
(1.00001 1.41664e-05 0)
(1.00011 2.95478e-05 0)
(1.00038 4.58676e-05 0)
(1.00069 6.10968e-05 0)
(1.00108 7.98739e-05 0)
(1.00141 9.1233e-05 0)
(1.00176 0.000104196 0)
(1.00207 0.000108943 0)
(1.00236 0.000136203 0)
(1.00261 0.00015063 0)
(1.00293 0.000167137 0)
(1.00318 0.000193475 0)
(1.00348 0.000207711 0)
(1.00376 0.000225547 0)
(1.00406 0.000239448 0)
(1.00434 0.000251699 0)
(1.00459 0.000266564 0)
(1.00478 0.000274739 0)
(1.00488 0.00028758 0)
(1.0048 0.000293749 0)
(0.984939 0.00216485 0)
(0.960704 0.0033429 0)
(0.936282 0.00368601 0)
(0.911432 0.00363977 0)
(0.886164 0.00355378 0)
(0.860514 0.00352352 0)
(0.834502 0.00352243 0)
(0.808098 0.00351497 0)
(0.781286 0.00349089 0)
(0.754031 0.00345376 0)
(0.726331 0.00341228 0)
(0.698141 0.00336711 0)
(0.669484 0.00332155 0)
(0.640314 0.00327367 0)
(0.610679 0.00322007 0)
(0.580576 0.00316145 0)
(0.550046 0.00309952 0)
(0.519097 0.00302704 0)
(0.487859 0.00293903 0)
(0.456425 0.00283224 0)
(0.425038 0.0027007 0)
(0.393887 0.00253987 0)
(0.363424 0.0023371 0)
(0.334183 0.0020611 0)
(0.306929 0.00166387 0)
(0.282672 0.00116178 0)
(0.262419 0.000569614 0)
(0.246859 5.71301e-05 0)
(0.235806 -0.000286011 0)
(0.228169 -0.000451659 0)
(0.222779 -0.000506939 0)
(0.218861 -0.000485157 0)
(0.215865 -0.000449165 0)
(0.21337 -0.000400158 0)
(0.211148 -0.000343393 0)
(0.208985 -0.000286251 0)
(0.20676 -0.000233768 0)
(0.204415 -0.000188398 0)
(0.201945 -0.000149818 0)
(0.199342 -0.000117242 0)
(0.196636 -9.0574e-05 0)
(0.19384 -6.9346e-05 0)
(0.191009 -5.27226e-05 0)
(0.188152 -3.87439e-05 0)
(0.185323 -2.83225e-05 0)
(0.182502 -1.93337e-05 0)
(0.179727 -1.13031e-05 0)
(0.17698 -5.36302e-06 0)
(0.174288 7.34782e-07 0)
(0.171636 5.89451e-06 0)
(0.169042 9.50647e-06 0)
(0.166492 1.26845e-05 0)
(0.164012 1.54964e-05 0)
(0.161586 1.67687e-05 0)
(0.159244 1.82548e-05 0)
(0.156961 1.9498e-05 0)
(0.154754 2.07737e-05 0)
(0.152596 2.17702e-05 0)
(0.150501 2.22754e-05 0)
(0.148445 2.24948e-05 0)
(0.146457 2.20574e-05 0)
(0.144505 2.1889e-05 0)
(0.14263 2.12916e-05 0)
(0.140796 2.04064e-05 0)
(0.139037 2.02171e-05 0)
(0.137304 1.93806e-05 0)
(0.135631 1.91278e-05 0)
(0.133973 1.83519e-05 0)
(0.132384 1.73057e-05 0)
(0.130809 1.68616e-05 0)
(0.129314 1.54612e-05 0)
(0.127832 1.48281e-05 0)
(0.126424 1.46534e-05 0)
(0.125019 1.33789e-05 0)
(0.123692 1.29637e-05 0)
(0.122364 1.21255e-05 0)
(0.121119 1.15722e-05 0)
(0.119871 1.12061e-05 0)
(0.118716 1.02439e-05 0)
(0.11755 9.61453e-06 0)
(0.116491 9.17624e-06 0)
(0.115407 8.35017e-06 0)
(0.114443 8.26744e-06 0)
(0.113445 7.21134e-06 0)
(0.112589 6.81817e-06 0)
(0.111671 6.54839e-06 0)
(0.11092 5.49897e-06 0)
(0.11009 5.16543e-06 0)
(0.109438 5.48746e-06 0)
(0.108665 4.4005e-06 0)
(0.108138 3.51519e-06 0)
(0.107443 3.77422e-06 0)
(0.107011 3.74655e-06 0)
(0.106348 2.84895e-06 0)
(0.106045 2.67356e-06 0)
(0.105406 2.74153e-06 0)
(0.105212 2.53185e-06 0)
(0.104549 2.57082e-06 0)
(0.104486 3.15565e-06 0)
(0.103643 4.85009e-06 0)
(0.997421 0.00406712 0)
(0.996396 0.00588752 0)
(0.995058 0.00653505 0)
(0.993356 0.00649151 0)
(0.991224 0.00633871 0)
(0.988541 0.00629353 0)
(0.985322 0.00633911 0)
(0.981478 0.00640951 0)
(0.977024 0.0064713 0)
(0.971867 0.00652087 0)
(0.966011 0.00656752 0)
(0.95936 0.00661496 0)
(0.951918 0.0066641 0)
(0.943597 0.00671398 0)
(0.934401 0.00676013 0)
(0.924264 0.00680046 0)
(0.913182 0.00683518 0)
(0.901073 0.00685994 0)
(0.887981 0.00686652 0)
(0.873831 0.00684503 0)
(0.858734 0.00678768 0)
(0.842642 0.00667814 0)
(0.825777 0.00650147 0)
(0.808302 0.00622847 0)
(0.790567 0.00579493 0)
(0.773029 0.00517999 0)
(0.756271 0.00438971 0)
(0.740766 0.00354319 0)
(0.726792 0.00275802 0)
(0.714087 0.00213825 0)
(0.702366 0.00169962 0)
(0.691314 0.00140229 0)
(0.680784 0.0011964 0)
(0.670597 0.00104486 0)
(0.660698 0.000940839 0)
(0.650992 0.000875012 0)
(0.641436 0.000834277 0)
(0.631959 0.000805166 0)
(0.622587 0.000782836 0)
(0.613252 0.000762705 0)
(0.604007 0.000742845 0)
(0.594793 0.000720705 0)
(0.585702 0.000694942 0)
(0.576669 0.000666263 0)
(0.56783 0.000637411 0)
(0.559085 0.000609911 0)
(0.550509 0.000582075 0)
(0.542084 0.000555466 0)
(0.533817 0.000528466 0)
(0.525699 0.000503085 0)
(0.517803 0.000479489 0)
(0.510018 0.000455195 0)
(0.502471 0.000433174 0)
(0.495069 0.000408776 0)
(0.487897 0.000387212 0)
(0.480895 0.000366031 0)
(0.474103 0.000346498 0)
(0.467481 0.000329864 0)
(0.461061 0.000314078 0)
(0.45477 0.000299584 0)
(0.448696 0.000285089 0)
(0.442716 0.000271522 0)
(0.436972 0.000257714 0)
(0.431319 0.000243828 0)
(0.425898 0.000233372 0)
(0.420546 0.000222328 0)
(0.415389 0.00021434 0)
(0.410289 0.000204994 0)
(0.40539 0.00019532 0)
(0.400522 0.000187466 0)
(0.395896 0.000177566 0)
(0.391266 0.000169385 0)
(0.386886 0.000162936 0)
(0.382495 0.000154145 0)
(0.378353 0.000148448 0)
(0.374189 0.000140796 0)
(0.370278 0.000133847 0)
(0.366338 0.000127194 0)
(0.362705 0.000120123 0)
(0.358996 0.00011354 0)
(0.355644 0.000107578 0)
(0.352157 0.000100242 0)
(0.349093 9.56924e-05 0)
(0.345875 8.73668e-05 0)
(0.343106 8.2591e-05 0)
(0.34013 7.75442e-05 0)
(0.337718 7.07543e-05 0)
(0.334939 6.50692e-05 0)
(0.332832 6.30137e-05 0)
(0.330308 5.57301e-05 0)
(0.328565 5.04401e-05 0)
(0.326189 4.71142e-05 0)
(0.324802 4.48716e-05 0)
(0.322571 3.83451e-05 0)
(0.321567 3.64958e-05 0)
(0.319392 3.2716e-05 0)
(0.318784 3.15848e-05 0)
(0.316574 2.74469e-05 0)
(0.316406 2.97949e-05 0)
(0.31395 3.38371e-05 0)
(0.997778 0.00365983 0)
(0.997155 0.00480462 0)
(0.996756 0.00547409 0)
(0.996572 0.00560777 0)
(0.99657 0.00554045 0)
(0.996569 0.00551178 0)
(0.996589 0.00558502 0)
(0.996522 0.00572366 0)
(0.996418 0.00588276 0)
(0.996169 0.00604038 0)
(0.995816 0.00619943 0)
(0.99525 0.00636108 0)
(0.994504 0.00652808 0)
(0.993482 0.00669872 0)
(0.99222 0.00687185 0)
(0.99063 0.00703973 0)
(0.98874 0.00720793 0)
(0.986453 0.00736585 0)
(0.983806 0.0075072 0)
(0.980694 0.00761749 0)
(0.97716 0.0076874 0)
(0.97311 0.00769738 0)
(0.968604 0.00762315 0)
(0.963617 0.00743366 0)
(0.958248 0.00706869 0)
(0.952548 0.00648156 0)
(0.94672 0.00569402 0)
(0.940852 0.00479564 0)
(0.935153 0.00392147 0)
(0.929541 0.00321392 0)
(0.924066 0.00272485 0)
(0.918578 0.0024101 0)
(0.913144 0.00221788 0)
(0.907638 0.00209249 0)
(0.902147 0.00201858 0)
(0.896541 0.00197714 0)
(0.890899 0.00195814 0)
(0.885075 0.00194464 0)
(0.879183 0.00193368 0)
(0.873085 0.00192026 0)
(0.866904 0.0019032 0)
(0.860521 0.00187906 0)
(0.854055 0.00184641 0)
(0.847411 0.00180706 0)
(0.840707 0.00175954 0)
(0.833858 0.0017152 0)
(0.826953 0.00166656 0)
(0.819909 0.00161602 0)
(0.812854 0.00156784 0)
(0.805616 0.00151463 0)
(0.798442 0.00146407 0)
(0.791089 0.00141206 0)
(0.783796 0.00136041 0)
(0.776417 0.00130566 0)
(0.769064 0.00125258 0)
(0.761684 0.00120121 0)
(0.754339 0.00115099 0)
(0.746951 0.00110328 0)
(0.739652 0.00105878 0)
(0.732263 0.00101449 0)
(0.725035 0.000972204 0)
(0.717682 0.000931115 0)
(0.710542 0.000889819 0)
(0.703293 0.00084809 0)
(0.696263 0.000812646 0)
(0.689144 0.000777067 0)
(0.682218 0.000746585 0)
(0.675214 0.000714785 0)
(0.668445 0.000683944 0)
(0.66155 0.000654952 0)
(0.654987 0.000624157 0)
(0.648243 0.000596466 0)
(0.641878 0.000572196 0)
(0.635329 0.000543532 0)
(0.629175 0.000521106 0)
(0.622838 0.000496507 0)
(0.616919 0.000473359 0)
(0.610789 0.000449402 0)
(0.605193 0.000426357 0)
(0.599273 0.000402626 0)
(0.594046 0.000383325 0)
(0.588359 0.000358982 0)
(0.583463 0.00033997 0)
(0.578134 0.000315986 0)
(0.573617 0.000297911 0)
(0.568519 0.000275816 0)
(0.564569 0.000258297 0)
(0.559719 0.000239053 0)
(0.556153 0.000224719 0)
(0.551651 0.000201792 0)
(0.548686 0.000188784 0)
(0.544317 0.00017222 0)
(0.541916 0.000162214 0)
(0.537768 0.00014172 0)
(0.535974 0.000135524 0)
(0.53189 0.000119355 0)
(0.530757 0.000115358 0)
(0.526645 9.92695e-05 0)
(0.526215 0.000101468 0)
(0.52189 0.000102653 0)
(0.998217 0.00353805 0)
(0.997563 0.00446919 0)
(0.997096 0.00521735 0)
(0.996869 0.0056104 0)
(0.996925 0.00571573 0)
(0.997065 0.00573616 0)
(0.99732 0.00579206 0)
(0.997553 0.00590922 0)
(0.997857 0.00606135 0)
(0.998119 0.00622586 0)
(0.998429 0.00639328 0)
(0.998674 0.00656456 0)
(0.998936 0.00673784 0)
(0.999116 0.00691666 0)
(0.999301 0.00709599 0)
(0.999409 0.00727641 0)
(0.999513 0.00745686 0)
(0.999537 0.00763235 0)
(0.999545 0.0077881 0)
(0.999463 0.0079182 0)
(0.999341 0.00800404 0)
(0.9991 0.00803227 0)
(0.998786 0.00796431 0)
(0.998312 0.00777497 0)
(0.997732 0.00741156 0)
(0.996933 0.00684373 0)
(0.995985 0.00608749 0)
(0.994764 0.0052266 0)
(0.993422 0.00438014 0)
(0.991824 0.00368078 0)
(0.990178 0.00318233 0)
(0.988336 0.00286329 0)
(0.986526 0.00267256 0)
(0.984582 0.00255879 0)
(0.982722 0.00249592 0)
(0.980735 0.00245666 0)
(0.978803 0.00243503 0)
(0.97671 0.00241912 0)
(0.97463 0.00240745 0)
(0.972367 0.00239675 0)
(0.97009 0.00238255 0)
(0.967618 0.00236407 0)
(0.965116 0.00233642 0)
(0.962399 0.00230253 0)
(0.959667 0.0022614 0)
(0.956699 0.00222313 0)
(0.953744 0.00218363 0)
(0.950518 0.00213939 0)
(0.947337 0.00210089 0)
(0.943846 0.0020559 0)
(0.940418 0.00201195 0)
(0.936687 0.00196862 0)
(0.932981 0.00192134 0)
(0.929034 0.00187064 0)
(0.925082 0.00182059 0)
(0.920916 0.00176994 0)
(0.916783 0.00172282 0)
(0.912385 0.00167469 0)
(0.908092 0.00163234 0)
(0.90345 0.00158687 0)
(0.898985 0.00154356 0)
(0.894123 0.00150032 0)
(0.889481 0.00145508 0)
(0.884448 0.00140809 0)
(0.879629 0.00136689 0)
(0.874455 0.00132522 0)
(0.869487 0.00128962 0)
(0.864142 0.00124919 0)
(0.85909 0.00121188 0)
(0.853548 0.00117356 0)
(0.848443 0.00113342 0)
(0.842767 0.00109502 0)
(0.837583 0.00106079 0)
(0.831842 0.0010202 0)
(0.826602 0.000986628 0)
(0.820788 0.000948841 0)
(0.815583 0.000915002 0)
(0.809669 0.000875004 0)
(0.804587 0.000840856 0)
(0.798624 0.000800274 0)
(0.793674 0.000767936 0)
(0.787748 0.000729038 0)
(0.782934 0.000694869 0)
(0.777095 0.000651951 0)
(0.772555 0.000624372 0)
(0.76671 0.000580965 0)
(0.762572 0.00054845 0)
(0.756829 0.000514617 0)
(0.752991 0.000488012 0)
(0.747369 0.000441291 0)
(0.744105 0.000419323 0)
(0.738482 0.000385087 0)
(0.73574 0.000364266 0)
(0.730221 0.000323237 0)
(0.728115 0.000310786 0)
(0.722552 0.000275527 0)
(0.721168 0.000266271 0)
(0.715509 0.000232112 0)
(0.714902 0.000230979 0)
(0.709013 0.000219477 0)
(0.998548 0.00357363 0)
(0.997888 0.00438155 0)
(0.997375 0.00510737 0)
(0.997063 0.00560413 0)
(0.997071 0.00580971 0)
(0.997195 0.00585987 0)
(0.997475 0.0058811 0)
(0.997729 0.0059427 0)
(0.998073 0.0060529 0)
(0.998366 0.00619559 0)
(0.998734 0.00635468 0)
(0.999039 0.00652336 0)
(0.999399 0.00669664 0)