/*--------------------------------*- C++ -*----------------------------------*\
| =========                 |                                                 |
| \\      /  F ield         | OpenFOAM: The Open Source CFD Toolbox           |
|  \\    /   O peration     | Version:  v2106                                 |
|   \\  /    A nd           | Website:  www.openfoam.com                      |
|    \\/     M anipulation  |                                                 |
\*---------------------------------------------------------------------------*/
FoamFile
{
    version     2.0;
    format      ascii;
    arch        "LSB;label=32;scalar=64";
    class       volScalarField;
    location    "1.5";
    object      p;
}
// * * * * * * * * * * * * * * * * * * * * * * * * * * * * * * * * * * * * * //

dimensions      [0 2 -2 0 0 0 0];

internalField   nonuniform List<scalar> 
4800
(
9.70173e-11
-1.1411e-05
-5.22133e-05
-0.000139412
-0.000214874
-0.000308363
-0.000383673
-0.000407641
-0.000412036
-0.00042157
-0.000397949
-0.000342237
-0.00023907
-6.39736e-05
0.000149426
0.000419884
0.000774126
0.00128151
0.00195322
0.00262971
1.11495e-05
-1.43814e-05
-5.0299e-05
-0.000141071
-0.00021154
-0.00031107
-0.000379281
-0.000409577
-0.000406776
-0.000422339
-0.000392277
-0.000343958
-0.000233402
-6.70122e-05
0.000152262
0.000413155
0.000784819
0.00123344
0.00174644
0.00225174
1.43336e-05
-1.61707e-05
-4.95585e-05
-0.000141547
-0.000210369
-0.000312237
-0.000377309
-0.000409213
-0.000404732
-0.000421066
-0.000391509
-0.000341131
-0.000233215
-6.78742e-05
0.000148985
0.000395861
0.000729547
0.00111317
0.00155896
0.00197639
2.50082e-05
-1.83793e-05
-4.83626e-05
-0.000141611
-0.000209234
-0.000312159
-0.000376587
-0.000407155
-0.000405817
-0.000409294
-0.000391278
-0.000336037
-0.000229774
-6.67294e-05
0.000137418
0.00036812
0.000668961
0.00100327
0.0013492
0.00171281
3.08616e-05
-1.99465e-05
-4.83899e-05
-0.000140709
-0.000209861
-0.000311101
-0.000377185
-0.000402629
-0.000405879
-0.000405723
-0.000386864
-0.000331123
-0.000228251
-7.09378e-05
0.000119342
0.000327648
0.000587409
0.000831601
0.0011151
0.0014675
4.02347e-05
-2.00046e-05
-4.92497e-05
-0.000138542
-0.000211424
-0.000308527
-0.00037773
-0.000399656
-0.000403515
-0.000400106
-0.00038399
-0.000326369
-0.000228892
-8.0837e-05
9.5122e-05
0.000265904
0.000437872
0.000641423
0.000910865
0.00125248
4.76077e-05
-1.80448e-05
-5.25724e-05
-0.000135303
-0.000213725
-0.000306681
-0.000374696
-0.000398592
-0.000399967
-0.000395803
-0.00038121
-0.000323413
-0.000232804
-9.87951e-05
4.56666e-05
0.000133456
0.0002768
0.000485791
0.000740244
0.00105343
5.60838e-05
-1.33272e-05
-5.56685e-05
-0.000133232
-0.00021398
-0.000305552
-0.000370958
-0.000391103
-0.000396835
-0.000391891
-0.000378239
-0.000324405
-0.00024125
-0.000142946
-7.03515e-05
8.31285e-06
0.000154315
0.000354184
0.000577111
0.000852839
6.14934e-05
-5.75123e-06
-5.64924e-05
-0.000134344
-0.000213635
-0.000302312
-0.000366746
-0.000387074
-0.000393335
-0.000388084
-0.000378369
-0.000334449
-0.000277813
-0.000242145
-0.000170694
-7.96695e-05
4.92009e-05
0.000217246
0.00040547
0.0006485
7.1102e-05
1.46463e-06
-5.43193e-05
-0.000135006
-0.000214884
-0.000296094
-0.000361322
-0.000385021
-0.000390359
-0.000387213
-0.000382702
-0.000366593
-0.000367314
-0.000329534
-0.000239942
-0.000153778
-5.90595e-05
6.99856e-05
0.00022541
0.000440919
7.71175e-05
9.67452e-06
-4.89306e-05
-0.000131707
-0.000216381
-0.00029233
-0.000355852
-0.000381828
-0.000390651
-0.00038875
-0.000415952
-0.000452163
-0.000434765
-0.00038022
-0.000303255
-0.000238185
-0.000177081
-8.72861e-05
3.72604e-05
0.00023029
8.36872e-05
1.90404e-05
-4.14989e-05
-0.00012372
-0.000214142
-0.000292384
-0.000352916
-0.000382209
-0.000396878
-0.000425497
-0.000483833
-0.000505485
-0.000471797
-0.000428587
-0.000377607
-0.000337413
-0.000306573
-0.000252415
-0.00015666
1.71686e-05
8.99008e-05
2.94006e-05
-3.17137e-05
-0.00011057
-0.000205833
-0.000295281
-0.000359772
-0.000390951
-0.000426334
-0.000486263
-0.000530779
-0.000538034
-0.000513314
-0.000487383
-0.000463634
-0.000449474
-0.000445172
-0.000422112
-0.000353418
-0.000195677
9.54558e-05
4.09663e-05
-1.91656e-05
-9.49721e-05
-0.0001897
-0.000297338
-0.000381805
-0.000430276
-0.00047634
-0.000521157
-0.000554625
-0.000572424
-0.000564797
-0.000557003
-0.000558562
-0.000570819
-0.000591472
-0.000595849
-0.000550461
-0.000406154
0.000104994
5.09441e-05
-3.46097e-06
-7.89246e-05
-0.000176228
-0.00029899
-0.00042153
-0.000487767
-0.000519552
-0.000548938
-0.000582344
-0.000612824
-0.000624299
-0.00063527
-0.000660454
-0.000699146
-0.000744415
-0.000772139
-0.000746341
-0.000614109
0.000116302
6.29292e-05
1.35257e-05
-6.27632e-05
-0.000175862
-0.000315267
-0.000451834
-0.000524245
-0.00056039
-0.000587689
-0.000621533
-0.000660918
-0.000690503
-0.000720989
-0.000768476
-0.000832495
-0.000901779
-0.000950623
-0.000942287
-0.000821226
0.000132623
7.86099e-05
2.63142e-05
-4.93925e-05
-0.000183259
-0.000343147
-0.000481139
-0.000559705
-0.000600999
-0.000632466
-0.00066984
-0.000716751
-0.000763238
-0.000814035
-0.000882919
-0.000970288
-0.00106243
-0.00113142
-0.00113906
-0.00102791
0.000152418
9.83912e-05
3.44341e-05
-4.74202e-05
-0.00019413
-0.000371798
-0.000514507
-0.000594925
-0.000640299
-0.000678968
-0.000723469
-0.000779931
-0.00084323
-0.000914485
-0.00100377
-0.00111225
-0.00122562
-0.00131398
-0.00133635
-0.00123367
0.000175002
0.000122709
4.19308e-05
-5.90184e-05
-0.000212855
-0.000397558
-0.000545971
-0.000631665
-0.000682575
-0.000729069
-0.000783048
-0.00085067
-0.000930319
-0.00102129
-0.00113043
-0.00125895
-0.00139216
-0.00149856
-0.00153432
-0.00143873
0.00020019
0.000147589
4.8477e-05
-7.75712e-05
-0.000241349
-0.000424446
-0.000575493
-0.000669689
-0.000727968
-0.000783423
-0.000848484
-0.000928625
-0.00102445
-0.0011349
-0.00126369
-0.00141111
-0.00156201
-0.00168411
-0.00173158
-0.00164209
0.000227579
0.000171908
5.16859e-05
-9.76027e-05
-0.000272924
-0.000456512
-0.00060845
-0.00070874
-0.000776431
-0.000842405
-0.000920083
-0.00101383
-0.00112545
-0.00125473
-0.00140257
-0.00156735
-0.00173351
-0.00186904
-0.00192696
-0.00184317
0.000254924
0.000194407
5.26914e-05
-0.000118121
-0.00030532
-0.000492972
-0.000646844
-0.000752536
-0.000829075
-0.000906139
-0.000997255
-0.00110572
-0.0012331
-0.00138001
-0.00154569
-0.00172641
-0.0019062
-0.00205349
-0.00212078
-0.00204228
0.000280656
0.000214453
5.33364e-05
-0.00013878
-0.000338103
-0.000532338
-0.000691305
-0.000802796
-0.000887017
-0.000974368
-0.00107935
-0.00120377
-0.00134743
-0.00151075
-0.00169273
-0.00188792
-0.00207994
-0.00223738
-0.00231262
-0.00223871
0.000303856
0.000232016
5.38816e-05
-0.000159386
-0.000372131
-0.000574594
-0.000740877
-0.000859751
-0.00095153
-0.00104804
-0.00116646
-0.00130721
-0.00146751
-0.00164642
-0.00184309
-0.002051
-0.00225375
-0.0024199
-0.00250166
-0.00243161
0.000324119
0.000246424
5.39003e-05
-0.000179961
-0.000407794
-0.00061921
-0.000794396
-0.000923132
-0.00102346
-0.00112816
-0.00125847
-0.00141493
-0.00159202
-0.00178641
-0.00199618
-0.002215
-0.00242668
-0.00260016
-0.0026872
-0.00262021
0.000341186
0.000257573
5.25097e-05
-0.000200671
-0.00044516
-0.000666637
-0.000851158
-0.000991925
-0.00110296
-0.00121536
-0.00135536
-0.001526
-0.0017195
-0.00192933
-0.00215139
-0.00237962
-0.0025984
-0.00277762
-0.00286891
-0.00280422
0.000354795
0.000265084
4.90853e-05
-0.000222235
-0.000484257
-0.000716831
-0.000910901
-0.00106475
-0.00118898
-0.00130997
-0.00145778
-0.00164014
-0.00184869
-0.00207331
-0.00230727
-0.00254418
-0.00276877
-0.00295214
-0.00304656
-0.0029835
0.000364739
0.000268918
4.29867e-05
-0.000245043
-0.000525503
-0.000770064
-0.00097337
-0.00114037
-0.00127972
-0.00141141
-0.00156641
-0.00175782
-0.00197884
-0.00221676
-0.00246206
-0.00270723
-0.00293708
-0.00312339
-0.00321966
-0.00315745
0.000370814
0.000268445
3.33699e-05
-0.000268845
-0.000568096
-0.000827086
-0.00103945
-0.00121807
-0.00137289
-0.00151747
-0.00168045
-0.00187916
-0.00210986
-0.002359
-0.00261467
-0.00286758
-0.00310237
-0.00329099
-0.00338791
-0.00332561
0.000372823
0.000264094
1.97237e-05
-0.000294969
-0.000611546
-0.000886444
-0.00110944
-0.00129843
-0.00146736
-0.00162581
-0.00179813
-0.00200341
-0.00224145
-0.00249954
-0.00276415
-0.00302414
-0.00326345
-0.0034541
-0.00355098
-0.00348768
0.000370509
0.000255633
2.51737e-06
-0.000323802
-0.000656641
-0.000947213
-0.0011819
-0.00138135
-0.00156252
-0.00173481
-0.00191777
-0.00212959
-0.00237311
-0.00263759
-0.00290939
-0.00317554
-0.00341894
-0.00361145
-0.00370819
-0.00364344
0.000363943
0.000243242
-1.86401e-05
-0.000355239
-0.00070282
-0.00100964
-0.00125646
-0.00146605
-0.00165788
-0.00184225
-0.0020368
-0.00225608
-0.0025042
-0.00277294
-0.00304989
-0.00332115
-0.00356806
-0.00376213
-0.00385866
-0.00379232
0.000353127
0.000227209
-4.37488e-05
-0.000389935
-0.000749531
-0.00107146
-0.00133189
-0.00155222
-0.00175353
-0.00194786
-0.00215312
-0.00238045
-0.00263296
-0.00290458
-0.00318478
-0.00345986
-0.00370973
-0.00390512
-0.00400141
-0.00393357
0.000337855
0.000207683
-7.09545e-05
-0.000427209
-0.000797894
-0.00113221
-0.0014056
-0.00163773
-0.0018484
-0.00205138
-0.00226532
-0.00250021
-0.0027575
-0.00303164
-0.00331386
-0.00359109
-0.00384298
-0.00403932
-0.00413537
-0.00406616
0.000319026
0.000184541
-0.000100445
-0.000464823
-0.000846013
-0.00119231
-0.00147727
-0.0017201
-0.0019405
-0.00215183
-0.002373
-0.0026136
-0.00287529
-0.00315226
-0.00343609
-0.00371438
-0.00396712
-0.00416402
-0.00425981
-0.00418947
0.000297054
0.00015979
-0.000130933
-0.000503498
-0.000892295
-0.0012488
-0.00154671
-0.0017985
-0.00202702
-0.0022469
-0.00247479
-0.00272026
-0.00298524
-0.00326504
-0.00355039
-0.00382915
-0.00408172
-0.00427841
-0.00437374
-0.00430234
0.000272799
0.000133067
-0.000160867
-0.000540258
-0.000936449
-0.00129979
-0.00160985
-0.00187216
-0.00210697
-0.00233465
-0.00256879
-0.00281834
-0.00308558
-0.00336728
-0.00365438
-0.00393368
-0.00418601
-0.00438202
-0.00447677
-0.00440449
0.000248023
0.00010632
-0.000189945
-0.000573152
-0.000975081
-0.00134598
-0.00166531
-0.00193646
-0.00217788
-0.0024119
-0.00265173
-0.0029048
-0.00317398
-0.00345698
-0.00374527
-0.00402498
-0.00427682
-0.00447181
-0.00456566
-0.00449276
0.000225462
8.3365e-05
-0.000214942
-0.000602037
-0.00100668
-0.00138325
-0.00171135
-0.00198805
-0.00223572
-0.00247554
-0.00271901
-0.00297478
-0.00324516
-0.00352914
-0.00381791
-0.00409788
-0.00434932
-0.00454338
-0.00463609
-0.00456207
0.000204752
6.05942e-05
-0.000238376
-0.000628859
-0.00103709
-0.00141739
-0.00175478
-0.00203876
-0.00229059
-0.00253673
-0.00278517
-0.00304416
-0.00331653
-0.00360194
-0.00389212
-0.0041731
-0.00442523
-0.00461944
-0.00471219
-0.00463822
0.00335558
0.00349858
0.00337571
0.00328587
0.00322463
0.00310968
0.00290032
0.00261411
0.00228978
0.00195182
0.0016074
0.00125901
0.000909352
0.000556072
0.000196907
-0.000169769
-0.000551829
-0.000962533
-0.00141403
-0.00191773
-0.002484
-0.00311745
-0.00381636
-0.00456944
-0.00534217
-0.00607079
-0.00666786
-0.0070495
-0.00717699
-0.00706737
-0.00679597
-0.00645286
-0.00610752
-0.00580144
-0.00555151
-0.00536351
-0.00523734
-0.00516626
-0.0051373
-0.0051389
-0.00516414
-0.00520835
-0.00526465
-0.00532836
-0.00539728
-0.00546831
-0.00553951
-0.00561028
-0.00568139
-0.00575258
-0.00582375
-0.00589465
-0.00596857
-0.00604243
-0.00611457
-0.006187
-0.00626068
-0.00633263
-0.00640326
-0.00647444
-0.00654498
-0.00661597
-0.00668641
-0.00675977
-0.00683431
-0.00690782
-0.00698307
-0.00705549
-0.00712963
-0.00720243
-0.00727708
-0.00735495
-0.00743026
-0.00751141
-0.00758887
-0.00766667
-0.00774717
-0.00782334
-0.00790767
-0.00798672
-0.00806974
-0.00815464
-0.00823177
-0.00831963
-0.00840012
-0.00847837
-0.00856902
-0.00864481
-0.00872678
-0.00881316
-0.00888564
-0.00897121
-0.00904722
-0.0091188
-0.00919755
-0.00926447
-0.00933667
-0.00940121
-0.00944833
-0.00950504
0.00275952
0.00312588
0.00326847
0.00327066
0.00320882
0.00307844
0.00286439
0.00258157
0.00226173
0.00192644
0.00158302
0.0012349
0.0008856
0.000532967
0.000174515
-0.00019114
-0.000571601
-0.000980352
-0.00142958
-0.00193023
-0.00249222
-0.00311992
-0.00381122
-0.00455338
-0.00531336
-0.0060304
-0.00662228
-0.00700873
-0.00714543
-0.00704453
-0.0067795
-0.00644041
-0.00609704
-0.00579285
-0.00554441
-0.00535747
-0.00523198
-0.00516138
-0.00513279
-0.00513468
-0.00516014
-0.00520459
-0.00526108
-0.00532498
-0.0053941
-0.00546533
-0.00553672
-0.00560766
-0.00567896
-0.00575033
-0.00582165
-0.00589269
-0.00596675
-0.00604073
-0.00611298
-0.00618551
-0.00625929
-0.00633133
-0.00640203
-0.00647329
-0.00654389
-0.00661495
-0.00668544
-0.00675884
-0.00683343
-0.00690697
-0.00698227
-0.00705471
-0.00712889
-0.00720173
-0.00727639
-0.0073543
-0.0074296
-0.0075108
-0.00758827
-0.00766609
-0.00774663
-0.00782279
-0.00790717
-0.00798623
-0.00806925
-0.00815421
-0.00823131
-0.00831923
-0.00839973
-0.00847796
-0.00856867
-0.00864446
-0.00872643
-0.00881287
-0.00888532
-0.00897095
-0.00904697
-0.00911854
-0.00919733
-0.00926425
-0.00933646
-0.00940105
-0.00944814
-0.00950489
0.00243294
0.00290184
0.00320765
0.00330211
0.00324396
0.00308573
0.00284959
0.00255814
0.00223697
0.00190162
0.00155729
0.00120762
0.000856871
0.000503547
0.000144899
-0.000220462
-0.000599427
-0.00100589
-0.00145243
-0.00194925
-0.00250473
-0.00312251
-0.00379979
-0.00452082
-0.00525309
-0.0059413
-0.00651333
-0.00689595
-0.00704714
-0.00697288
-0.00673396
-0.00641339
-0.00608121
-0.00578347
-0.00554044
-0.00535759
-0.00523427
-0.00516429
-0.00513549
-0.00513693
-0.00516186
-0.00520572
-0.00526167
-0.00532507
-0.00539374
-0.00546461
-0.00553572
-0.00560648
-0.00567763
-0.00574891
-0.0058202
-0.00589119
-0.00596522
-0.0060392
-0.00611145
-0.00618399
-0.00625778
-0.00632984
-0.00640056
-0.00647187
-0.00654254
-0.00661369
-0.00668427
-0.00675776
-0.0068324
-0.00690597
-0.0069813
-0.00705377
-0.00712801
-0.00720092
-0.00727566
-0.00735364
-0.00742895
-0.00751018
-0.00758766
-0.0076655
-0.00774609
-0.00782227
-0.0079067
-0.00798576
-0.0080688
-0.00815379
-0.00823088
-0.00831885
-0.00839935
-0.00847758
-0.00856835
-0.00864413
-0.00872611
-0.0088126
-0.00888502
-0.00897069
-0.00904672
-0.0091183
-0.00919713
-0.00926405
-0.0093363
-0.00940092
-0.00944811
-0.00950493
0.00215897
0.00267576
0.00307945
0.00325987
0.00323715
0.00307547
0.00282285
0.00251992
0.00219553
0.0018611
0.00151804
0.00116868
0.00081754
0.000464129
0.000105567
-0.000259319
-0.000636472
-0.00103996
-0.00148281
-0.00197416
-0.0025205
-0.00312434
-0.0037821
-0.00447771
-0.00517824
-0.00583404
-0.0063828
-0.0067606
-0.00692798
-0.00688403
-0.00667628
-0.00637913
-0.00606151
-0.00577235
-0.00553487
-0.00535568
-0.00523427
-0.00516476
-0.00513568
-0.00513668
-0.0051611
-0.00520438
-0.00525983
-0.00532277
-0.00539101
-0.0054616
-0.00553255
-0.0056032
-0.00567433
-0.00574569
-0.0058171
-0.00588819
-0.00596231
-0.00603638
-0.00610875
-0.00618138
-0.00625524
-0.00632736
-0.00639817
-0.00646958
-0.00654039
-0.00661174
-0.0066825
-0.00675615
-0.00683089
-0.0069045
-0.00697987
-0.00705237
-0.00712668
-0.0071997
-0.00727456
-0.00735266
-0.00742799
-0.00750924
-0.00758671
-0.00766458
-0.00774522
-0.00782144
-0.00790595
-0.00798502
-0.00806806
-0.00815307
-0.00823015
-0.00831816
-0.00839867
-0.00847691
-0.00856772
-0.0086435
-0.0087255
-0.00881202
-0.00888443
-0.00897015
-0.00904619
-0.00911781
-0.00919669
-0.0092636
-0.00933591
-0.00940059
-0.00944808
-0.00950499
0.0019176
0.00245744
0.00292338
0.00317773
0.00320978
0.00306552
0.00280691
0.00249177
0.00215886
0.00182119
0.00147781
0.00112866
0.000777272
0.000423849
6.55278e-05
-0.000298567
-0.000673564
-0.00107359
-0.00151187
-0.00199653
-0.00253224
-0.00312001
-0.0037555
-0.00442295
-0.00509151
-0.00571606
-0.0062425
-0.00661547
-0.00679798
-0.00678365
-0.00660893
-0.00633855
-0.00603845
-0.0057595
-0.00552771
-0.00535186
-0.00523241
-0.00516373
-0.0051348
-0.00513574
-0.00515989
-0.00520274
-0.00525777
-0.00532026
-0.00538805
-0.00545833
-0.00552906
-0.00559957
-0.00567064
-0.00574203
-0.00581354
-0.00588473
-0.00595885
-0.00603296
-0.00610544
-0.00617814
-0.00625202
-0.00632417
-0.00639504
-0.00646655
-0.00653751
-0.00660908
-0.00668011
-0.00675397
-0.00682883
-0.00690248
-0.00697786
-0.00705039
-0.00712479
-0.00719797
-0.00727301
-0.00735127
-0.00742666
-0.00750789
-0.00758536
-0.00766325
-0.00774395
-0.00782027
-0.00790484
-0.00798397
-0.00806696
-0.00815201
-0.0082291
-0.00831711
-0.00839765
-0.00847591
-0.00856671
-0.00864254
-0.00872454
-0.00881109
-0.0088835
-0.00896924
-0.00904529
-0.00911698
-0.00919594
-0.00926284
-0.00933523
-0.0094
-0.009448
-0.00950502
0.00169978
0.00225074
0.00275827
0.003072
0.00316286
0.00305258
0.00280043
0.00247452
0.00212805
0.00178219
0.0014361
0.00108649
0.000734794
0.000381385
2.36561e-05
-0.000339268
-0.000711725
-0.0011077
-0.00154042
-0.00201718
-0.00254103
-0.00311149
-0.0037237
-0.00436285
-0.00500053
-0.00559551
-0.0061006
-0.00646806
-0.00666378
-0.00667732
-0.00653554
-0.00629359
-0.00601331
-0.005746
-0.0055203
-0.00534773
-0.0052301
-0.00516225
-0.0051336
-0.00513462
-0.00515861
-0.00520107
-0.00525569
-0.00531769
-0.00538497
-0.00545487
-0.00552533
-0.00559563
-0.00566659
-0.00573798
-0.00580958
-0.00588084
-0.00595494
-0.00602908
-0.00610167
-0.00617442
-0.0062483
-0.00632047
-0.00639139
-0.00646298
-0.0065341
-0.00660595
-0.00667729
-0.00675138
-0.00682637
-0.00690007
-0.00697544
-0.00704798
-0.00712247
-0.00719587
-0.00727111
-0.00734957
-0.00742502
-0.0075062
-0.00758366
-0.00766155
-0.00774232
-0.00781877
-0.00790342
-0.00798263
-0.00806552
-0.00815062
-0.00822774
-0.0083157
-0.0083963
-0.00847457
-0.00856533
-0.00864126
-0.00872321
-0.00880978
-0.00888221
-0.00896794
-0.00904401
-0.00911578
-0.00919485
-0.00926174
-0.00933418
-0.00939909
-0.00944782
-0.00950493
0.00148721
0.00204599
0.00258574
0.00294892
0.00309541
0.00302814
0.00279396
0.00246324
0.00210214
0.00174427
0.00139245
0.00104091
0.000688401
0.000335006
-2.17119e-05
-0.000383058
-0.000752413
-0.00114335
-0.00156943
-0.00203708
-0.00254794
-0.00310031
-0.00368884
-0.00429983
-0.00490727
-0.00547396
-0.00595854
-0.00631952
-0.00652595
-0.00656504
-0.0064556
-0.00624349
-0.00598521
-0.00573123
-0.00551242
-0.00534323
-0.00522727
-0.00516014
-0.00513174
-0.00513291
-0.00515685
-0.00519896
-0.00525322
-0.00531479
-0.00538152
-0.00545102
-0.00552118
-0.00559127
-0.00566211
-0.0057335
-0.00580519
-0.00587651
-0.0059506
-0.0060248
-0.00609749
-0.00617031
-0.00624419
-0.00631637
-0.00638735
-0.00645904
-0.00653034
-0.0066025
-0.00667418
-0.00674854
-0.00682366
-0.0068974
-0.00697274
-0.0070453
-0.00711988
-0.00719353
-0.00726898
-0.00734768
-0.00742316
-0.00750429
-0.00758175
-0.00765962
-0.00774046
-0.00781707
-0.00790178
-0.0079811
-0.00806384
-0.008149
-0.00822615
-0.00831402
-0.00839471
-0.008473
-0.00856366
-0.00863974
-0.0087216
-0.0088082
-0.00888064
-0.00896632
-0.00904244
-0.00911429
-0.00919348
-0.00926037
-0.00933283
-0.00939795
-0.0094475
-0.00950471
0.00127027
0.00183693
0.00240703
0.00281418
0.00301026
0.00298906
0.00278073
0.00245296
0.00207972
0.00170757
0.00134665
0.000991239
0.000637484
0.000284288
-7.09352e-05
-0.000430073
-0.000795478
-0.00118009
-0.00159836
-0.00205582
-0.00255259
-0.0030861
-0.00365074
-0.00423381
-0.00481176
-0.00535131
-0.00581601
-0.00616954
-0.0063844
-0.00644672
-0.00636858
-0.00618719
-0.00595276
-0.00571402
-0.0055034
-0.0053381
-0.00522375
-0.00515716
-0.00512894
-0.00513029
-0.00515429
-0.00519616
-0.00525011
-0.00531135
-0.00537759
-0.00544669
-0.00551658
-0.00558648
-0.00565719
-0.00572857
-0.00580034
-0.00587175
-0.00594585
-0.00602013
-0.00609294
-0.00616583
-0.00623973
-0.00631194
-0.00638296
-0.00645476
-0.00652627
-0.00659876
-0.00667081
-0.00674547
-0.00682073
-0.00689451
-0.00696982
-0.00704239
-0.00711706
-0.007191
-0.00726668
-0.00734562
-0.00742115
-0.00750218
-0.00757966
-0.00765752
-0.00773841
-0.0078152
-0.00789998
-0.00797942
-0.00806198
-0.0081472
-0.00822442
-0.00831217
-0.00839295
-0.00847125
-0.0085618
-0.00863805
-0.0087198
-0.00880641
-0.00887891
-0.00896449
-0.00904067
-0.0091126
-0.00919192
-0.00925882
-0.00933129
-0.00939666
-0.00944708
-0.00950444
0.00104955
0.00162338
0.00222334
0.00267136
0.00291085
0.00293332
0.00275648
0.00243927
0.00205902
0.00167276
0.00130029
0.000939023
0.000583454
0.000230411
-0.000123188
-0.000479563
-0.000840304
-0.00121754
-0.00162675
-0.00207295
-0.00255454
-0.00306844
-0.00360919
-0.00416488
-0.00471431
-0.00522777
-0.00567305
-0.00601835
-0.00623953
-0.00632256
-0.00627414
-0.00612384
-0.00591503
-0.00569357
-0.00549284
-0.00533226
-0.00521966
-0.00515343
-0.00512522
-0.00512669
-0.00515081
-0.00519256
-0.00524631
-0.00530731
-0.00537317
-0.00544191
-0.00551155
-0.00558127
-0.00565185
-0.00572321
-0.0057951
-0.00586663
-0.00594075
-0.00601512
-0.0060881
-0.00616104
-0.00623496
-0.0063072
-0.00637827
-0.00645019
-0.00652191
-0.00659477
-0.00666722
-0.00674218
-0.00681759
-0.0068914
-0.00696666
-0.00703926
-0.00711402
-0.00718827
-0.00726422
-0.00734342
-0.00741899
-0.00749989
-0.0075774
-0.00765527
-0.00773621
-0.00781319
-0.00789803
-0.00797763
-0.00805998
-0.00814524
-0.00822255
-0.00831016
-0.00839103
-0.00846937
-0.00855978
-0.00863622
-0.00871786
-0.00880446
-0.00887704
-0.0089625
-0.00903876
-0.00911075
-0.00919023
-0.00925713
-0.00932961
-0.00939527
-0.00944656
-0.00950414
0.000827395
0.00140785
0.00203601
0.0025225
0.00280078
0.00286258
0.00271938
0.00241944
0.00203859
0.0016406
0.00125509
0.000885711
0.000527329
0.000174175
-0.000178019
-0.000531344
-0.000886845
-0.00125581
-0.0016545
-0.00208825
-0.00255385
-0.00304757
-0.00356449
-0.00409351
-0.00461538
-0.0051035
-0.00552963
-0.005866
-0.0060916
-0.00619288
-0.00617245
-0.00605316
-0.00587143
-0.00566931
-0.00548035
-0.00532563
-0.00521513
-0.00514916
-0.00512072
-0.00512213
-0.00514635
-0.0051881
-0.00524176
-0.00530261
-0.00536822
-0.00543668
-0.00550607
-0.00557563
-0.0056461
-0.00571748
-0.00578951
-0.00586116
-0.0059353
-0.00600978
-0.00608293
-0.00615593
-0.00622985
-0.00630213
-0.00637326
-0.0064453
-0.00651725
-0.00659049
-0.00666337
-0.00673866
-0.00681422
-0.00688805
-0.00696326
-0.00703589
-0.00711076
-0.00718533
-0.00726156
-0.00734104
-0.00741668
-0.00749742
-0.00757494
-0.00765284
-0.00773386
-0.00781103
-0.00789592
-0.00797568
-0.00805785
-0.00814311
-0.00822055
-0.00830799
-0.00838897
-0.00846734
-0.0085576
-0.00863426
-0.00871578
-0.00880235
-0.00887504
-0.00896034
-0.00903671
-0.00910877
-0.00918841
-0.00925534
-0.00932781
-0.00939379
-0.00944596
-0.00950382
0.000605249
0.00119241
0.00184634
0.00236836
0.00268262
0.00277979
0.0026695
0.00239128
0.00201563
0.00160974
0.00121153
0.000832056
0.000469428
0.000115928
-0.000235021
-0.000585267
-0.000935157
-0.00129512
-0.00168189
-0.00210189
-0.00255079
-0.00302378
-0.00351674
-0.00401967
-0.00451485
-0.00497845
-0.00538585
-0.00571292
-0.00594142
-0.00605866
-0.0060643
-0.0059753
-0.00582151
-0.00564052
-0.0054652
-0.00531781
-0.00521008
-0.00514445
-0.00511554
-0.00511664
-0.00514086
-0.00518261
-0.00523629
-0.00529717
-0.00536261
-0.00543094
-0.00550016
-0.00556957
-0.00563997
-0.00571136
-0.00578353
-0.0058553
-0.00592947
-0.00600407
-0.00607739
-0.00615047
-0.00622436
-0.00629668
-0.00636786
-0.00644004
-0.00651225
-0.00658589
-0.00665923
-0.00673487
-0.00681058
-0.00688447
-0.00695961
-0.00703227
-0.00710727
-0.00718217
-0.0072587
-0.00733848
-0.0074142
-0.00749478
-0.00757228
-0.00765021
-0.00773134
-0.00780873
-0.00789364
-0.00797358
-0.00805557
-0.00814082
-0.00821841
-0.00830565
-0.00838676
-0.00846518
-0.00855526
-0.00863214
-0.00871357
-0.00880007
-0.00887292
-0.00895802
-0.00903453
-0.00910664
-0.00918644
-0.00925344
-0.00932587
-0.00939221
-0.00944527
-0.00950347
0.000384814
0.000979204
0.00165603
0.00221018
0.00255768
0.00268667
0.00260714
0.0023529
0.00198702
0.0015777
0.00116897
0.000778783
0.000410221
5.58884e-05
-0.000293689
-0.000641002
-0.000985218
-0.00133549
-0.00170894
-0.0021138
-0.00254526
-0.00299716
-0.00346607
-0.00394345
-0.00441303
-0.00485325
-0.00524252
-0.00555994
-0.00578985
-0.00592067
-0.00595016
-0.00589024
-0.00576472
-0.00560643
-0.0054466
-0.00530828
-0.0052044
-0.00513933
-0.0051098
-0.00511028
-0.00513431
-0.00517604
-0.00522982
-0.00529091
-0.00535631
-0.00542454
-0.00549372
-0.005563
-0.00563331
-0.00570476
-0.00577709
-0.00584902
-0.00592323
-0.00599796
-0.00607146
-0.00614461
-0.00621849
-0.0062908
-0.00636205
-0.00643439
-0.0065069
-0.00658096
-0.00665479
-0.00673082
-0.00680669
-0.00688061
-0.00695568
-0.00702837
-0.00710351
-0.00717878
-0.00725562
-0.00733571
-0.00741155
-0.00749194
-0.00756945
-0.00764737
-0.00772859
-0.00780628
-0.00789122
-0.00797131
-0.00805312
-0.00813836
-0.00821614
-0.00830314
-0.00838438
-0.00846287
-0.00855274
-0.00862986
-0.00871121
-0.00879762
-0.00887067
-0.00895552
-0.00903219
-0.00910437
-0.00918433
-0.00925145
-0.00932379
-0.00939052
-0.00944449
-0.00950306
0.000167815
0.000769504
0.00146592
0.00204833
0.00242593
0.0025837
0.00253245
0.00230276
0.00195049
0.00154202
0.00112608
0.000726307
0.000350625
-5.55191e-06
-0.000353278
-0.000697443
-0.00103614
-0.00137633
-0.00173545
-0.00212409
-0.00253746
-0.00296812
-0.00341307
-0.00386538
-0.00431027
-0.00472808
-0.00509979
-0.00540728
-0.00563725
-0.00577954
-0.00583065
-0.00579827
-0.00570088
-0.0055664
-0.00542376
-0.0052962
-0.00519756
-0.00513372
-0.0051036
-0.0051032
-0.00512678
-0.00516837
-0.0052222
-0.00528358
-0.00534908
-0.00541727
-0.00548657
-0.00555588
-0.00562611
-0.00569765
-0.00577021
-0.00584233
-0.00591655
-0.00599139
-0.0060651
-0.00613831
-0.00621219
-0.0062845
-0.0063558
-0.00642832
-0.00650115
-0.00657569
-0.00665003
-0.00672644
-0.00680249
-0.00687643
-0.00695144
-0.00702416
-0.00709945
-0.00717514
-0.00725232
-0.00733272
-0.00740871
-0.00748889
-0.00756642
-0.00764432
-0.00772561
-0.00780364
-0.00788863
-0.00796887
-0.00805048
-0.0081357
-0.00821373
-0.00830043
-0.00838182
-0.00846042
-0.00855004
-0.00862742
-0.00870869
-0.008795
-0.00886828
-0.00895284
-0.00902968
-0.00910197
-0.00918206
-0.00924934
-0.00932155
-0.0093887
-0.00944362
-0.00950258
-4.55304e-05
0.000562729
0.00127551
0.00188238
0.00228726
0.00247153
0.00244643
0.00224094
0.00190495
0.00150113
0.00108154
0.00067455
0.000291656
-6.76386e-05
-0.000413355
-0.000753697
-0.00108719
-0.00141774
-0.00176208
-0.00213334
-0.00252785
-0.00293709
-0.0033582
-0.00378575
-0.00420656
-0.00460285
-0.00495784
-0.00525553
-0.00548449
-0.0056363
-0.00570671
-0.00569992
-0.00562989
-0.00551979
-0.00539583
-0.0052807
-0.00518896
-0.00512753
-0.00509706
-0.00509552
-0.00511831
-0.00515954
-0.00521331
-0.00527503
-0.00534083
-0.00540915
-0.00547866
-0.00554818
-0.00561837
-0.00568998
-0.00576282
-0.00583516
-0.00590942
-0.00598439
-0.00605833
-0.00613159
-0.00620543
-0.00627775
-0.00634906
-0.00642175
-0.00649496
-0.00657001
-0.00664492
-0.00672175
-0.00679801
-0.006872
-0.0069469
-0.00701966
-0.00709511
-0.00717123
-0.0072488
-0.0073295
-0.00740566
-0.0074856
-0.00756317
-0.00764106
-0.00772241
-0.00780078
-0.00788586
-0.00796629
-0.00804767
-0.00813281
-0.00821117
-0.00829753
-0.00837906
-0.00845781
-0.00854715
-0.0086248
-0.008706
-0.00879217
-0.00886575
-0.00894998
-0.00902701
-0.00909942
-0.0091796
-0.00924712
-0.00931915
-0.00938675
-0.00944265
-0.00950202
-0.000256543
0.000357188
0.00108398
0.00171237
0.00214246
0.00235156
0.00235071
0.00216836
0.00184996
0.00145398
0.00103398
0.000622515
0.00023364
-0.000129541
-0.000473848
-0.000809596
-0.00113771
-0.0014594
-0.00178889
-0.00214155
-0.00251641
-0.00290424
-0.0033017
-0.0037049
-0.00410233
-0.00447802
-0.00481715
-0.0051053
-0.00533234
-0.0054916
-0.00557885
-0.00559555
-0.0055517
-0.0054662
-0.00536222
-0.00526116
-0.00517784
-0.00512017
-0.00508999
-0.00508721
-0.00510894
-0.00514964
-0.00520324
-0.00526523
-0.00533144
-0.00540001
-0.00546976
-0.00553959
-0.00560997
-0.00568169
-0.00575484
-0.00582749
-0.00590183
-0.00597693
-0.00605108
-0.00612438
-0.00619814
-0.00627047
-0.00634181
-0.00641468
-0.00648834
-0.00656398
-0.00663951
-0.00671679
-0.00679322
-0.00686723
-0.00694199
-0.00701479
-0.00709046
-0.00716704
-0.00724502
-0.00732606
-0.00740239
-0.00748207
-0.00755969
-0.0076376
-0.00771899
-0.0077977
-0.00788286
-0.00796354
-0.00804471
-0.00812968
-0.00820843
-0.00829444
-0.0083761
-0.00845504
-0.00854406
-0.008622
-0.00870313
-0.00878913
-0.00886306
-0.00894692
-0.00902415
-0.00909674
-0.00917694
-0.00924477
-0.00931659
-0.00938464
-0.00944159
-0.00950136
-0.000466768
0.000151771
0.000891179
0.00153892
0.00199239
0.00222469
0.00224592
0.00208509
0.00178469
0.00139917
0.000981786
0.000568552
0.00017594
-0.000190729
-0.000534465
-0.000865084
-0.00118683
-0.00150018
-0.00181544
-0.00214882
-0.00250334
-0.00287003
-0.00324422
-0.0036235
-0.00399831
-0.00435412
-0.00467792
-0.0049568
-0.00518132
-0.00534606
-0.00544774
-0.00548599
-0.00546697
-0.00540573
-0.00532243
-0.00523674
-0.00516326
-0.00511087
-0.00508226
-0.00507861
-0.00509903
-0.00513887
-0.00519202
-0.0052541
-0.0053207
-0.00538963
-0.00545981
-0.00553008
-0.00560084
-0.00567283
-0.00574625
-0.00581929
-0.00589375
-0.00596896
-0.00604333
-0.00611664
-0.00619034
-0.00626268
-0.00633409
-0.00640715
-0.00648124
-0.00655751
-0.00663371
-0.00671145
-0.00678803
-0.00686207
-0.00693673
-0.00700957
-0.00708547
-0.00716259
-0.00724099
-0.00732235
-0.00739892
-0.00747825
-0.00755592
-0.0076339
-0.00771536
-0.00779443
-0.00787959
-0.00796056
-0.00804159
-0.00812633
-0.00820547
-0.00829112
-0.00837293
-0.0084521
-0.00854073
-0.00861903
-0.00870009
-0.00878587
-0.00886018
-0.00894366
-0.0090211
-0.00909391
-0.00917409
-0.0092423
-0.00931384
-0.00938235
-0.00944044
-0.0095006
-0.000675924
-5.28069e-05
0.000697974
0.00136297
0.00183776
0.00209183
0.00213332
0.00199227
0.00170982
0.00133671
0.000924629
0.000511895
0.000117911
-0.000250724
-0.000594219
-0.000919809
-0.00123405
-0.00153889
-0.00184116
-0.00215568
-0.00248929
-0.00283495
-0.00318641
-0.00354214
-0.00389505
-0.00423171
-0.0045405
-0.00481036
-0.0050321