/*--------------------------------*- C++ -*----------------------------------*\
| =========                 |                                                 |
| \\      /  F ield         | OpenFOAM: The Open Source CFD Toolbox           |
|  \\    /   O peration     | Version:  v2106                                 |
|   \\  /    A nd           | Website:  www.openfoam.com                      |
|    \\/     M anipulation  |                                                 |
\*---------------------------------------------------------------------------*/
FoamFile
{
    version     2.0;
    format      ascii;
    arch        "LSB;label=32;scalar=64";
    class       surfaceScalarField;
    location    "1.5";
    object      phi;
}
// * * * * * * * * * * * * * * * * * * * * * * * * * * * * * * * * * * * * * //

dimensions      [0 3 -1 0 0 0 0];

oriented        oriented;

internalField   nonuniform List<scalar> 
9440
(
3.88138e-06
-3.22168e-09
3.87742e-06
-2.11251e-08
3.8805e-06
8.04437e-09
3.87699e-06
-3.64186e-08
3.87948e-06
-5.71575e-09
3.87653e-06
-3.11477e-08
3.87898e-06
9.29012e-09
3.87874e-06
-3.53901e-09
3.88188e-06
2.40628e-08
3.88215e-06
-4.01232e-09
3.88363e-06
4.9714e-09
3.88316e-06
-1.68871e-08
3.88436e-06
-2.51328e-09
3.88363e-06
-1.9071e-08
3.88438e-06
-3.88437e-09
3.88426e-06
-1.61029e-08
3.88366e-06
-5.32068e-10
3.87873e-06
-1.09984e-08
3.86534e-06
1.65034e-08
3.06472e-08
3.8428e-06
4.18324e-06
-6.01908e-10
4.18648e-06
-2.43646e-08
4.1845e-06
1.00251e-08
4.18622e-06
-3.81408e-08
4.18477e-06
-4.26569e-09
4.18527e-06
-3.16437e-08
4.18521e-06
9.3441e-09
4.18595e-06
-4.27243e-09
4.18775e-06
2.22604e-08
4.18719e-06
-3.44856e-09
4.18883e-06
3.32565e-09
4.18737e-06
-1.54246e-08
4.18935e-06
-4.49413e-09
4.18797e-06
-1.76903e-08
4.18976e-06
-5.67708e-09
4.18606e-06
-1.23994e-08
4.18386e-06
1.66251e-09
4.17198e-06
8.86462e-10
4.16658e-06
2.19042e-08
3.69668e-08
4.16026e-06
4.5177e-06
1.76052e-09
4.51986e-06
-2.65238e-08
4.51964e-06
1.02484e-08
4.51952e-06
-3.80207e-08
4.52037e-06
-5.1226e-09
4.51833e-06
-2.95981e-08
4.5212e-06
6.47023e-09
4.51886e-06
-1.93005e-09
4.52398e-06
1.71361e-08
4.52031e-06
2.21803e-10
4.52517e-06
-1.53085e-09
4.5206e-06
-1.08557e-08
4.52607e-06
-9.96438e-09
4.52283e-06
-1.44477e-08
4.5262e-06
-9.04708e-09
4.52161e-06
-7.81512e-09
4.5223e-06
9.74952e-10
4.51452e-06
8.66707e-09
4.50749e-06
2.89314e-08
4.69375e-08
4.49752e-06
4.88044e-06
2.27185e-09
4.88026e-06
-2.63438e-08
4.88288e-06
7.62485e-09
4.88034e-06
-3.54793e-08
4.88352e-06
-8.30712e-09
4.87943e-06
-2.55041e-08
4.88402e-06
1.88044e-09
4.88063e-06
1.46022e-09
4.8862e-06
1.15673e-08
4.8835e-06
2.91516e-09
4.88791e-06
-5.93426e-09
4.88715e-06
-1.01027e-08
4.88931e-06
-1.21174e-08
4.88781e-06
-1.29467e-08
4.88873e-06
-9.9715e-09
4.88648e-06
-5.56792e-09
4.88427e-06
3.18952e-09
4.87401e-06
1.89233e-08
4.86505e-06
3.78991e-08
5.27243e-08
4.85926e-06
5.27081e-06
2.11088e-09
5.26948e-06
-2.50205e-08
5.27382e-06
3.29238e-09
5.26998e-06
-3.16472e-08
5.27436e-06
-1.26868e-08
5.26956e-06
-2.07047e-08
5.27437e-06
-2.92765e-09
5.27194e-06
3.89788e-09
5.27678e-06
6.72043e-09
5.27764e-06
2.05669e-09
5.2796e-06
-7.89575e-09
5.27956e-06
-1.0056e-08
5.2808e-06
-1.33616e-08
5.28026e-06
-1.2407e-08
5.27984e-06
-9.54668e-09
5.27662e-06
-2.35061e-09
5.26666e-06
1.31496e-08
5.2554e-06
3.01814e-08
5.2508e-06
4.24981e-08
5.48947e-08
5.24863e-06
5.69186e-06
1.71467e-09
5.68965e-06
-2.28117e-08
5.69527e-06
-2.33342e-09
5.69091e-06
-2.72865e-08
5.69546e-06
-1.72346e-08
5.69138e-06
-1.6621e-08
5.69535e-06
-6.89995e-09
5.69617e-06
3.07522e-09
5.69902e-06
3.87566e-09
5.70062e-06
4.49163e-10
5.70212e-06
-9.39408e-09
5.7027e-06
-1.0631e-08
5.70305e-06
-1.37194e-08
5.70264e-06
-1.19971e-08
5.6991e-06
-6.00412e-09
5.68867e-06
8.07835e-09
5.67733e-06
2.44917e-08
5.67231e-06
3.51981e-08
5.66954e-06
4.52761e-08
5.56874e-08
5.66874e-06
6.14638e-06
1.20516e-09
6.14373e-06
-2.01589e-08
6.14964e-06
-8.2416e-09
6.14648e-06
-2.41292e-08
6.14927e-06
-2.00301e-08
6.14827e-06
-1.56184e-08
6.14931e-06
-7.94155e-09
6.15229e-06
9.86613e-11
6.15518e-06
9.82904e-10
6.15718e-06
-1.54959e-09
6.15818e-06
-1.03897e-08
6.15913e-06
-1.15871e-08
6.15801e-06
-1.26013e-08
6.15493e-06
-8.9124e-09
6.14336e-06
5.56499e-09
6.13229e-06
1.91448e-08
6.12784e-06
2.89492e-08
6.12467e-06
3.83605e-08
6.12293e-06
4.70198e-08
5.61761e-08
6.12244e-06
6.63714e-06
6.23811e-10
6.63447e-06
-1.74824e-08
6.63942e-06
-1.31997e-08
6.63876e-06
-2.34614e-08
6.6388e-06
-2.00729e-08
6.64039e-06
-1.72086e-08
6.64252e-06
-1.00753e-08
6.64492e-06
-2.30228e-09
6.6477e-06
-1.79283e-09
6.64988e-06
-3.73245e-09
6.65051e-06
-1.10121e-08
6.65027e-06
-1.13565e-08
6.64616e-06
-8.48645e-09
6.63518e-06
2.07219e-09
6.62411e-06
1.66321e-08
6.61928e-06
2.39708e-08
6.61635e-06
3.1881e-08
6.61435e-06
4.03581e-08
6.61276e-06
4.86114e-08
5.68149e-08
6.61212e-06
7.16701e-06
4.78254e-11
7.16473e-06
-1.52079e-08
7.16631e-06
-1.47737e-08
7.16937e-06
-2.65246e-08
7.16951e-06
-2.02169e-08
7.17137e-06
-1.90662e-08
7.17445e-06
-1.31556e-08
7.17711e-06
-4.96621e-09
7.1794e-06
-4.08161e-09
7.18135e-06
-5.68242e-09
7.18164e-06
-1.12945e-08
7.17861e-06
-8.32776e-09
7.1673e-06
2.82336e-09
7.15542e-06
1.39463e-08
7.15046e-06
2.15933e-08
7.14709e-06
2.7344e-08
7.14501e-06
3.39596e-08
7.14303e-06
4.23402e-08
7.14151e-06
5.01277e-08
5.72073e-08
7.14112e-06
7.73923e-06
-5.81372e-10
7.73693e-06
-1.2905e-08
7.73811e-06
-1.59559e-08
7.74017e-06
-2.85866e-08
7.74424e-06
-2.42836e-08
7.74539e-06
-2.02132e-08
7.74822e-06
-1.5986e-08
7.75096e-06
-7.70333e-09
7.75345e-06
-6.57114e-09
7.75398e-06
-6.2212e-09
7.74954e-06
-6.85482e-09
7.7379e-06
3.32027e-09
7.72736e-06
1.33603e-08
7.72347e-06
1.78323e-08
7.72088e-06
2.41881e-08
7.71822e-06
3.0001e-08
7.71569e-06
3.64879e-08
7.71393e-06
4.41051e-08
7.71265e-06
5.14042e-08
5.73661e-08
7.71249e-06
8.3571e-06
-1.22535e-09
8.35475e-06
-1.05538e-08
8.35596e-06
-1.71659e-08
8.35658e-06
-2.92025e-08
8.36255e-06
-3.02551e-08
8.36611e-06
-2.37688e-08
8.36829e-06
-1.81701e-08
8.37003e-06
-9.44126e-09
8.3708e-06
-7.34282e-09
8.36643e-06
-1.85159e-09
8.35521e-06
4.36919e-09
8.34622e-06
1.23098e-08
8.3421e-06
1.74822e-08
8.33956e-06
2.03631e-08
8.33738e-06
2.63739e-08
8.3346e-06
3.27833e-08
8.33221e-06
3.88776e-08
8.33056e-06
4.57553e-08
8.32957e-06
5.23908e-08
5.734e-08
8.3296e-06
9.02428e-06
-1.85777e-09
9.0225e-06
-8.76931e-09
9.02348e-06
-1.81478e-08
9.0242e-06
-2.99235e-08
9.02921e-06
-3.52677e-08
9.03468e-06
-2.92412e-08
9.03727e-06
-2.07582e-08
9.03737e-06
-9.54316e-09
9.03239e-06
-2.35919e-09
9.02323e-06
7.30379e-09
9.01419e-06
1.34131e-08
9.01032e-06
1.6175e-08
9.00803e-06
1.97749e-08
9.00524e-06
2.31516e-08
9.00286e-06
2.87535e-08
9.00043e-06
3.52217e-08
8.99813e-06
4.11774e-08
8.9966e-06
4.72783e-08
8.99606e-06
5.29329e-08
5.74259e-08
8.99597e-06
9.7447e-06
-2.45487e-09
9.74422e-06
-8.28559e-09
9.74492e-06
-1.885e-08
9.74591e-06
-3.09108e-08
9.74892e-06
-3.82782e-08
9.75491e-06
-3.52359e-08
9.75664e-06
-2.24896e-08
9.75176e-06
-4.66577e-09
9.74207e-06
7.33394e-09
9.73469e-06
1.46852e-08
9.73149e-06
1.66097e-08
9.72953e-06
1.81394e-08
9.72706e-06
2.22473e-08
9.72424e-06
2.59716e-08
9.72172e-06
3.12673e-08
9.71945e-06
3.74992e-08
9.71739e-06
4.32298e-08
9.71622e-06
4.84549e-08
9.71568e-06
5.3471e-08
5.74061e-08
9.7157e-06
1.05226e-05
-2.94896e-09
1.05246e-05
-1.0338e-08
1.05242e-05
-1.84479e-08
1.05271e-05
-3.37824e-08
1.05257e-05
-3.68683e-08
1.05267e-05
-3.62453e-08
1.05234e-05
-1.91444e-08
1.05193e-05
-5.6863e-10
1.05138e-05
1.27999e-08
1.05105e-05
1.79378e-08
1.05082e-05
1.89909e-08
1.05058e-05
2.04794e-08
1.05035e-05
2.45611e-08
1.05007e-05
2.87224e-08
1.04982e-05
3.38112e-08
1.04961e-05
3.96229e-08
1.04945e-05
4.4858e-08
1.04934e-05
4.95318e-08
1.04929e-05
5.39503e-08
5.72429e-08
1.04931e-05
1.13628e-05
-3.54489e-09
1.13657e-05
-1.32595e-08
1.13679e-05
-2.06101e-08
1.13691e-05
-3.49868e-08
1.13664e-05
-3.42628e-08
1.13576e-05
-2.73847e-08
1.13532e-05
-1.47354e-08
1.13508e-05
1.77554e-09
1.13506e-05
1.30409e-08
1.13495e-05
1.90478e-08
1.13471e-05
2.14052e-08
1.13444e-05
2.31815e-08
1.1342e-05
2.69148e-08
1.13394e-05
3.12936e-08
1.1337e-05
3.62502e-08
1.13351e-05
4.154e-08
1.13337e-05
4.62361e-08
1.13328e-05
5.04887e-08
1.13324e-05
5.4283e-08
5.695e-08
1.13327e-05
1.227e-05
-4.25818e-09
1.2274e-05
-1.71669e-08
1.22765e-05
-2.319e-08
1.22753e-05
-3.37864e-08
1.22734e-05
-3.2278e-08
1.22662e-05
-2.01956e-08
1.22589e-05
-7.45973e-09
1.22561e-05
4.53037e-09
1.22554e-05
1.37628e-08
1.22549e-05
1.96005e-08
1.2253e-05
2.33075e-08
1.22502e-05
2.59092e-08
1.22478e-05
2.93746e-08
1.22453e-05
3.37241e-08
1.22431e-05
3.85229e-08
1.22414e-05
4.32159e-08
1.22402e-05
4.74744e-08
1.22394e-05
5.12419e-08
1.22392e-05
5.44526e-08
5.6541e-08
1.22396e-05
1.32498e-05
-5.08095e-09
1.32525e-05
-1.98989e-08
1.3256e-05
-2.67368e-08
1.32527e-05
-3.04865e-08
1.32483e-05
-2.78401e-08
1.32435e-05
-1.54187e-08
1.32384e-05
-2.36778e-09
1.32351e-05
7.8444e-09
1.32335e-05
1.53327e-08
1.32326e-05
2.05141e-08
1.3231e-05
2.49213e-08
1.32286e-05
2.82862e-08
1.32262e-05
3.18234e-08
1.32239e-05
3.6029e-08
1.32218e-05
4.06145e-08
1.32203e-05
4.46583e-08
1.32193e-05
4.8568e-08
1.32187e-05
5.17799e-08
1.32187e-05
5.44502e-08
5.60169e-08
1.32192e-05
1.43075e-05
-5.82352e-09
1.4309e-05
-2.14051e-08
1.43123e-05
-3.0025e-08
1.43097e-05
-2.7888e-08
1.43025e-05
-2.06357e-08
1.42981e-05
-1.10327e-08
1.42949e-05
8.09569e-10
1.42924e-05
1.03519e-08
1.42905e-05
1.728e-08
1.4289e-05
2.20031e-08
1.42874e-05
2.65012e-08
1.42853e-05
3.03352e-08
1.4283e-05
3.4117e-08
1.42809e-05
3.8188e-08
1.4279e-05
4.24641e-08
1.42777e-05
4.59644e-08
1.42769e-05
4.94422e-08
1.42765e-05
5.21117e-08
1.42767e-05
5.42761e-08
5.53696e-08
1.42773e-05
1.54495e-05
-6.28168e-09
1.54497e-05
-2.16903e-08
1.54504e-05
-3.07e-08
1.54492e-05
-2.66645e-08
1.54435e-05
-1.49327e-08
1.54385e-05
-6.02398e-09
1.54355e-05
3.74695e-09
1.54338e-05
1.20679e-08
1.5432e-05
1.91154e-08
1.54302e-05
2.37826e-08
1.54285e-05
2.82326e-08
1.54266e-05
3.22541e-08
1.54245e-05
3.6171e-08
1.54226e-05
4.01092e-08
1.5421e-05
4.40643e-08
1.54199e-05
4.70823e-08
1.54192e-05
5.00917e-08
1.54191e-05
5.22422e-08
1.54194e-05
5.39316e-08
5.46013e-08
1.54202e-05
1.66826e-05
-6.42207e-09
1.66824e-05
-2.15353e-08
1.66797e-05
-2.79326e-08
1.66775e-05
-2.45274e-08
1.66748e-05
-1.21802e-08
1.66713e-05
-2.50148e-09
1.66682e-05
6.8269e-09
1.66663e-05
1.39193e-08
1.66647e-05
2.07543e-08
1.66629e-05
2.56089e-08
1.66611e-05
3.00194e-08
1.66593e-05
3.40815e-08
1.66574e-05
3.80039e-08
1.66558e-05
4.17343e-08
1.66545e-05
4.53671e-08
1.66536e-05
4.79655e-08
1.66532e-05
5.05234e-08
1.66532e-05
5.21897e-08
1.66537e-05
5.34308e-08
5.37169e-08
1.66546e-05
1.80143e-05
-6.27816e-09
1.80124e-05
-1.96612e-08
1.80094e-05
-2.49462e-08
1.80064e-05
-2.15687e-08
1.80043e-05
-1.0092e-08
1.80023e-05
-4.6276e-10
1.79998e-05
9.35996e-09
1.79977e-05
1.5993e-08
1.7996e-05
2.24675e-08
1.79942e-05
2.73538e-08
1.79925e-05
3.17774e-08
1.79908e-05
3.57809e-08
1.79892e-05
3.96342e-08
1.79878e-05
4.30934e-08
1.79868e-05
4.63506e-08
1.79862e-05
4.85986e-08
1.7986e-05
5.07248e-08
1.79862e-05
5.19533e-08
1.79869e-05
5.27686e-08
5.27079e-08
1.79879e-05
1.94523e-05
-5.89359e-09
1.94495e-05
-1.68989e-08
1.94464e-05
-2.18276e-08
1.94434e-05
-1.85374e-08
1.94411e-05
-7.78605e-09
1.94395e-05
1.16442e-09
1.94377e-05
1.11583e-08
1.94357e-05
1.79012e-08
1.94339e-05
2.42873e-08
1.94322e-05
2.9077e-08
1.94305e-05
3.34341e-08
1.9429e-05
3.73303e-08
1.94276e-05
4.10296e-08
1.94265e-05
4.42167e-08
1.94258e-05
4.69953e-08
1.94255e-05
4.89814e-08
1.94255e-05
5.06807e-08
1.94259e-05
5.15148e-08
1.94268e-05
5.19427e-08
5.15698e-08
1.94279e-05
2.10052e-05
-5.3321e-09
2.10025e-05
-1.41381e-08
2.0999e-05
-1.8338e-08
2.09961e-05
-1.56047e-08
2.09936e-05
-5.30861e-09
2.09918e-05
2.94687e-09
2.09903e-05
1.26286e-08
2.09887e-05
1.952e-08
2.0987e-05
2.6034e-08
2.09853e-05
3.07704e-08
2.09838e-05
3.49516e-08
2.09824e-05
3.86789e-08
2.09813e-05
4.21433e-08
2.09805e-05
4.50374e-08
2.09801e-05
4.73542e-08
2.098e-05
4.90963e-08
2.09803e-05
5.03999e-08
2.09809e-05
5.08635e-08
2.09819e-05
5.09627e-08
5.03025e-08
2.09832e-05
2.26822e-05
-4.64564e-09
2.26794e-05
-1.12959e-08
2.26758e-05
-1.47665e-08
2.26729e-05
-1.27292e-08
2.26706e-05
-2.91578e-09
2.26686e-05
4.87555e-09
2.26672e-05
1.40967e-08
2.26658e-05
2.08973e-08
2.26643e-05
2.75635e-08
2.26627e-05
3.23334e-08
2.26613e-05
3.6338e-08
2.26602e-05
3.981e-08
2.26593e-05
4.29865e-08
2.26589e-05
4.54592e-08
2.26587e-05
4.75163e-08
2.26589e-05
4.89096e-08
2.26595e-05
4.98707e-08
2.26603e-05
4.99931e-08
2.26615e-05
4.98149e-08
4.89049e-08
2.26629e-05
2.44932e-05
-3.86179e-09
2.44908e-05
-8.93181e-09
2.44871e-05
-1.11054e-08
2.44841e-05
-9.70143e-09
2.44817e-05
-4.97027e-10
2.44797e-05
6.90745e-09
2.44781e-05
1.56344e-08
2.44769e-05
2.21002e-08
2.44757e-05
2.88087e-08
2.44744e-05
3.36472e-08
2.44732e-05
3.7544e-08
2.44722e-05
4.07184e-08
2.44717e-05
4.35015e-08
2.44716e-05
4.55872e-08
2.44717e-05
4.74121e-08
2.44722e-05
4.84397e-08
2.4473e-05
4.90856e-08
2.4474e-05
4.8906e-08
2.44754e-05
4.84823e-08
4.73697e-08
2.44769e-05
2.64487e-05
-2.9837e-09
2.64465e-05
-6.79448e-09
2.64431e-05
-7.69855e-09
2.64401e-05
-6.61582e-09
2.64377e-05
1.88709e-09
2.64356e-05
8.9555e-09
2.6434e-05
1.72341e-08
2.64329e-05
2.32206e-08
2.64319e-05
2.97805e-08
2.64309e-05
3.46309e-08
2.643e-05
3.84689e-08
2.64294e-05
4.13284e-08
2.64293e-05
4.3664e-08
2.64294e-05
4.54627e-08
2.64298e-05
4.69868e-08
2.64306e-05
4.76884e-08
2.64316e-05
4.80491e-08
2.64329e-05
4.76163e-08
2.64344e-05
4.69736e-08
4.57015e-08
2.64361e-05
2.85604e-05
-2.09813e-09
2.85586e-05
-4.99976e-09
2.85555e-05
-4.5388e-09
2.85523e-05
-3.46955e-09
2.855e-05
4.24219e-09
2.8548e-05
1.09523e-08
2.85464e-05
1.88045e-08
2.85453e-05
2.4294e-08
2.85446e-05
3.05003e-08
2.8544e-05
3.52395e-08
2.85434e-05
3.90378e-08
2.85432e-05
4.15683e-08
2.85433e-05
4.35675e-08
2.85437e-05
4.50453e-08
2.85445e-05
4.62484e-08
2.85455e-05
4.66555e-08
2.85468e-05
4.67517e-08
2.85483e-05
4.61142e-08
2.855e-05
4.52813e-08
4.38835e-08
2.85518e-05
3.08408e-05
-1.20076e-09
3.08391e-05
-3.33318e-09
3.08363e-05
-1.68505e-09
3.08333e-05
-5.48518e-10
3.08311e-05
6.49605e-09
3.08292e-05
1.28207e-08
3.08278e-05
2.02536e-08
3.08268e-05
2.5293e-08
3.08263e-05
3.10016e-08
3.0826e-05
3.54585e-08
3.08259e-05
3.92058e-08
3.0826e-05
4.14057e-08
3.08264e-05
4.31829e-08
3.08272e-05
4.43064e-08
3.08282e-05
4.51843e-08
3.08296e-05
4.53257e-08
3.08311e-05
4.51881e-08
3.08329e-05
4.43864e-08
3.08347e-05
4.34101e-08
4.19179e-08
3.08367e-05
3.33032e-05
-3.43078e-10
3.33018e-05
-1.85182e-09
3.32993e-05
8.2323e-10
3.32965e-05
2.19488e-09
3.32944e-05
8.61546e-09
3.32928e-05
1.44256e-08
3.32916e-05
2.14626e-08
3.32907e-05
2.61736e-08
3.32904e-05
3.13333e-08
3.32905e-05
3.53403e-08
3.32908e-05
3.89095e-08
3.32913e-05
4.08381e-08
3.32921e-05
4.2428e-08
3.32932e-05
4.32259e-08
3.32946e-05
4.37951e-08
3.32962e-05
4.36896e-08
3.3298e-05
4.336e-08
3.33e-05
4.24221e-08
3.33021e-05
4.13524e-08
3.9802e-08
3.33042e-05
3.59624e-05
3.96905e-10
3.59609e-05
-4.01217e-10
3.59588e-05
2.93641e-09
3.59563e-05
4.68471e-09
3.59544e-05
1.05072e-08
3.59531e-05
1.57283e-08
3.59522e-05
2.23607e-08
3.59517e-05
2.67383e-08
3.59516e-05
3.1457e-08
3.5952e-05
3.49005e-08
3.59528e-05
3.81423e-08
3.59537e-05
3.98698e-08
3.59549e-05
4.12738e-08
3.59563e-05
4.18059e-08
3.5958e-05
4.21047e-08
3.59599e-05
4.17785e-08
3.5962e-05
4.12859e-08
3.59642e-05
4.0243e-08
3.59664e-05
3.91059e-08
3.75375e-08
3.59687e-05
3.88338e-05
1.07378e-09
3.88325e-05
8.43376e-10
3.88308e-05
4.65314e-09
3.88287e-05
6.80936e-09
3.8827e-05
1.21932e-08
3.88259e-05
1.68023e-08
3.88254e-05
2.29086e-08
3.88252e-05
2.68779e-08
3.88255e-05
3.12134e-08
3.88263e-05
3.41157e-08
3.88275e-05
3.69098e-08
3.88289e-05
3.84926e-08
3.88305e-05
3.96995e-08
3.88322e-05
4.00266e-08
3.88342e-05
4.01013e-08
3.88364e-05
3.95934e-08
3.88387e-05
3.89657e-08
3.88411e-05
3.78478e-08
3.88436e-05
3.66709e-08
3.51142e-08
3.8846e-05
4.19345e-05
1.61668e-09
4.19334e-05
1.96147e-09
4.19319e-05
6.07897e-09
4.19303e-05
8.41141e-09
4.1929e-05
1.35001e-08
4.19283e-05
1.75008e-08
4.19282e-05
2.30545e-08
4.19284e-05
2.6635e-08
4.19291e-05
3.05336e-08
4.19302e-05
3.29971e-08
4.19318e-05
3.53034e-08
4.19336e-05
3.66918e-08
4.19356e-05
3.76986e-08
4.19378e-05
3.7845e-08
4.19402e-05
3.77676e-08
4.19426e-05
3.71175e-08
4.19452e-05
3.64022e-08
4.19478e-05
3.52374e-08
4.19504e-05
3.4056e-08
3.25329e-08
4.1953e-05
4.52828e-05
1.97826e-09
4.52818e-05
2.9936e-09
4.52807e-05
7.15511e-09
4.52796e-05
9.53264e-09
4.52787e-05
1.43826e-08
4.52784e-05
1.78324e-08
4.52787e-05
2.26793e-08
4.52795e-05
2.59078e-08
4.52807e-05
2.93084e-08
4.52823e-05
3.13543e-08
4.52842e-05
3.33807e-08
4.52865e-05
3.44428e-08
4.52889e-05
3.53094e-08
4.52915e-05
3.52756e-08
4.52941e-05
3.51185e-08
4.52969e-05
3.43586e-08
4.52997e-05
3.35977e-08
4.53025e-05
3.24142e-08
4.53053e-05
3.12578e-08
2.97932e-08
4.5308e-05
4.88983e-05
2.25977e-09
4.88976e-05
3.74624e-09
4.88968e-05
7.92528e-09
4.88962e-05
1.00901e-08
4.88959e-05
1.47524e-08
4.8896e-05
1.76831e-08
4.88969e-05
2.17905e-08
4.88982e-05
2.46589e-08
4.88999e-05
2.75376e-08
4.8902e-05
2.92691e-08
4.89044e-05
3.10115e-08
4.8907e-05
3.17873e-08
4.89098e-05
3.25065e-08
4.89128e-05
3.23443e-08
4.89157e-05
3.21518e-08
4.89188e-05
3.13346e-08
4.89218e-05
3.05706e-08
4.89248e-05
2.93923e-08
4.89278e-05
2.82911e-08
2.69009e-08
4.89307e-05
5.28025e-05
2.41921e-09
5.28021e-05
4.1468e-09
5.28018e-05
8.3157e-09
5.28016e-05
1.02279e-08
5.28019e-05
1.44913e-08
5.28026e-05
1.69704e-08
5.28041e-05
2.02883e-08
5.28059e-05
2.29039e-08
5.28081e-05
2.5284e-08
5.28106e-05
2.67531e-08
5.28134e-05
2.82485e-08
5.28164e-05
2.87586e-08
5.28196e-05
2.9326e-08
5.28229e-05
2.90195e-08
5.28262e-05
2.88206e-08
5.28296e-05
2.79839e-08
5.28329e-05
2.72644e-08
5.28362e-05
2.61344e-08
5.28393e-05
2.51163e-08
2.38388e-08
5.28424e-05
5.70185e-05
2.42287e-09
5.70182e-05
4.43877e-09
5.70182e-05
8.31684e-09
5.70187e-05
9.7933e-09
5.70196e-05
1.35751e-08
5.7021e-05
1.55637e-08
5.7023e-05
1.82944e-08
5.70253e-05
2.05742e-08
5.7028e-05
2.25484e-08
5.70312e-05
2.36354e-08
5.70344e-05
2.49628e-08
5.7038e-05
2.5227e-08
5.70416e-05
2.57223e-08
5.70453e-05
2.53264e-08
5.70489e-05
2.51452e-08
5.70526e-05
2.43606e-08
5.70561e-05
2.37055e-08
5.70596e-05
2.26907e-08
5.70629e-05
2.17662e-08
2.06373e-08
5.70661e-05
6.15711e-05
2.27193e-09
6.15712e-05
4.30757e-09
6.15717e-05
7.8152e-09
6.15726e-05
8.92162e-09
6.15741e-05
1.2091e-08
6.15761e-05
1.35341e-08
6.15786e-05
1.57488e-08
6.15816e-05
1.75999e-08
6.15849e-05
1.92412e-08
6.15885e-05
2.00908e-08
6.15923e-05
2.11624e-08
6.15962e-05
2.13277e-08
6.16002e-05
2.16982e-08
6.16042e-05
2.13057e-08
6.16082e-05
2.11114e-08
6.16122e-05
2.04133e-08
6.16161e-05
1.98405e-08
6.16198e-05
1.89679e-08
6.16233e-05
1.82014e-08
1.72902e-08
6.16267e-05
6.64871e-05
1.9259e-09
6.64879e-05
3.55197e-09
6.64891e-05
6.60642e-09
6.64906e-05
7.43638e-09
6.64925e-05
1.01921e-08
6.6495e-05
1.10596e-08
6.64979e-05
1.28012e-08
6.65013e-05
1.41923e-08
6.65052e-05
1.53782e-08
6.65092e-05
1.60639e-08
6.65135e-05
1.68653e-08
6.65179e-05
1.6952e-08
6.65223e-05
1.72671e-08
6.65267e-05
1.68969e-08
6.65311e-05
1.6769e-08
6.65353e-05
1.61664e-08
6.65394e-05
1.57414e-08
6.65434e-05
1.50129e-08
6.65472e-05
1.4397e-08
1.3611e-08
6.65509e-05
7.17955e-05
1.59017e-09
7.17965e-05
2.55768e-09
7.17981e-05
5.02057e-09
7.18002e-05
5.2999e-09
7.18029e-05
7.53139e-09
7.18059e-05
8.01441e-09
7.18095e-05
9.20981e-09
7.18135e-05
1.02046e-08
7.18178e-05
1.10987e-08
7.18224e-05
1.14373e-08
7.18271e-05
1.2198e-08
7.18319e-05
1.21249e-08
7.18367e-05
1.24615e-08
7.18415e-05
1.21158e-08
7.18462e-05
1.20781e-08
7.18507e-05
1.16102e-08
7.18552e-05
1.13243e-08
7.18594e-05
1.07972e-08
7.18634e-05
1.03646e-08
9.81961e-09
7.18672e-05
7.75281e-05
7.75295e-05
7.75317e-05
7.75342e-05
7.75376e-05
7.75411e-05
7.75452e-05
7.75499e-05
7.75547e-05
7.75599e-05
7.75652e-05
7.75705e-05
7.75759e-05
7.75811e-05
7.75863e-05
7.75913e-05
7.75961e-05
7.76007e-05
7.76051e-05
7.76093e-05
3.77565e-06
6.71466e-08
3.68108e-06
9.45777e-08
3.58095e-06
1.00123e-07
3.48253e-06
9.84239e-08
3.38443e-06
9.8095e-08
3.28514e-06
9.92981e-08
3.18398e-06
1.01157e-07
3.08091e-06
1.03069e-07
2.97602e-06
1.0489e-07
2.86935e-06
1.06667e-07
2.76088e-06
1.08476e-07
2.65055e-06
1.10326e-07
2.53832e-06
1.12233e-07
2.42422e-06
1.14097e-07
2.30834e-06
1.15886e-07
2.1907e-06
1.17638e-07
2.07151e-06
1.19191e-07
1.95112e-06
1.20387e-07
1.82993e-06
1.21193e-07
1.7084e-06
1.21523e-07
1.58734e-06
1.21066e-07
1.468e-06
1.19333e-07
1.35254e-06
1.15464e-07
1.24333e-06
1.0921e-07
1.14361e-06
9.97176e-08
1.05712e-06
8.64968e-08
9.87029e-07
7.00863e-08
9.3453e-07
5.24993e-08
8.97644e-07
3.68865e-08
8.7232e-07
2.53238e-08
8.54571e-07
1.77492e-08
8.41554e-07
1.30163e-08
8.31181e-07
1.0373e-08
8.22201e-07
8.98046e-09
8.13822e-07
8.37855e-09
8.05416e-07
8.40612e-09
7.96593e-07
8.8236e-09
7.87239e-07
9.35337e-09
7.77384e-07
9.85554e-09
7.671e-07
1.02834e-08
7.56464e-07
1.06368e-08
7.45571e-07
1.08926e-08
7.3454e-07
1.10306e-08
7.23462e-07
1.10782e-08
7.12419e-07
1.10429e-08
7.0149e-07
1.09295e-08
6.90726e-07
1.07638e-08
6.80161e-07
1.05646e-08
6.69804e-07
1.0357e-08
6.59675e-07
1.01292e-08
6.4977e-07
9.90515e-09
6.40092e-07
9.67784e-09
6.30608e-07
9.48384e-09
6.21378e-07
9.23051e-09
6.12363e-07
9.01423e-09
6.03579e-07
8.78459e-09
5.95002e-07
8.57736e-09
5.8669e-07
8.31114e-09
5.78602e-07
8.08874e-09
5.70766e-07
7.83538e-09
5.63153e-07
7.61314e-09
5.55762e-07
7.39101e-09
5.48554e-07
7.20802e-09
5.41491e-07
7.0627e-09
5.34587e-07
6.90443e-09
5.27843e-07
6.74422e-09
5.2125e-07
6.59297e-09
5.14869e-07
6.38069e-09
5.08619e-07
6.25016e-09
5.02579e-07
6.04024e-09
4.96606e-07
5.97263e-09
4.90781e-07
5.82501e-09
4.85043e-07
5.73783e-09
4.79387e-07
5.65584e-09
4.73908e-07
5.47923e-09
4.6852e-07
5.38795e-09
4.63276e-07
5.24402e-09
4.58172e-07
5.10453e-09
4.53086e-07
5.08524e-09
4.48219e-07
4.86778e-09
4.43318e-07
4.90039e-09
4.38646e-07
4.67229e-09
4.34053e-07
4.5929e-09
4.29538e-07
4.51464e-09
4.25235e-07
4.30364e-09
4.21018e-07
4.21712e-09
4.16845e-07
4.17224e-09
4.13001e-07
3.84494e-09
4.09063e-07
3.93773e-09
4.05421e-07
3.64204e-09
4.01869e-07
3.55156e-09
3.98411e-07
3.45862e-09
3.95171e-07
3.23939e-09
3.92067e-07
3.10388e-09
3.88995e-07
3.07199e-09
3.86226e-07
2.76941e-09
3.83302e-07
2.9238e-09
3.8075e-07
2.55195e-09
3.78022e-07
2.72817e-09
3.09361e-09
4.16561e-06
6.17918e-08
4.16917e-06
9.10208e-08
4.16343e-06
1.05861e-07
4.15341e-06
1.08446e-07
4.14255e-06
1.08958e-07
4.13056e-06
1.1128e-07
4.11628e-06
1.15443e-07
4.09911e-06
1.20239e-07
4.07893e-06
1.25072e-07
4.05571e-06
1.29883e-07
4.02936e-06
1.34827e-07
3.99973e-06
1.39958e-07
3.96663e-06
1.45333e-07
3.92987e-06
1.50856e-07
3.88932e-06
1.5643e-07
3.84482e-06
1.62141e-07
3.79622e-06
1.6779e-07
3.74347e-06
1.73133e-07
3.68657e-06
1.78095e-07
3.6255e-06
1.82591e-07
3.56044e-06
1.86133e-07
3.49176e-06
1.88013e-07
3.42034e-06
1.86881e-07
3.34724e-06
1.82314e-07
3.27377e-06
1.73181e-07
3.20183e-06
1.58444e-07
3.13354e-06
1.38367e-07
3.07047e-06
1.15579e-07
3.01346e-06
9.38946e-08
2.96209e-06
7.66867e-08
2.91485e-06
6.49962e-08
2.87027e-06
5.75965e-08
2.82741e-06
5.32262e-08
2.78566e-06
5.07348e-08
2.74482e-06
4.92157e-08
2.70463e-06
4.8599e-08
2.66482e-06
4.86378e-08
2.62529e-06
4.88805e-08
2.58604e-06
4.90996e-08
2.5471e-06
4.92276e-08
2.50844e-06
4.93016e-08
2.47013e-06
4.91999e-08
2.43221e-06
4.89476e-08
2.39474e-06
4.85477e-08
2.3578e-06
4.79818e-08
2.32147e-06
4.72617e-08
2.28577e-06
4.64616e-08
2.25077e-06
4.55646e-08
2.2165e-06
4.46267e-08
2.183e-06
4.36333e-08
2.15023e-06
4.26748e-08
2.11822e-06
4.16841e-08
2.08695e-06
4.07539e-08
2.05647e-06
3.97089e-08
2.02674e-06
3.87505e-08
1.99778e-06
3.77395e-08
1.96956e-06
3.68027e-08
1.94213e-06
3.57413e-08
1.91542e-06
3.47967e-08
1.88949e-06
3.3767e-08
1.86425e-06
3.28465e-08
1.83973e-06
3.19121e-08
1.81582e-06
3.11249e-08
1.79249e-06
3.03885e-08
1.76969e-06
2.97087e-08
1.74744e-06
2.89949e-08
1.72568e-06
2.83539e-08
1.70449e-06
2.75658e-08
1.68376e-06
2.69769e-08
1.6636e-06
2.62036e-08
1.64379e-06
2.57793e-08
1.62444e-06
2.51793e-08
1.60539e-06
2.47887e-08
1.58674e-06
2.43009e-08
1.56846e-06
2.37663e-08
1.55058e-06
2.32589e-08
1.53306e-06
2.27665e-08
1.51598e-06
2.21843e-08
1.49912e-06
2.19477e-08
1.48274e-06
2.12493e-08
1.46653e-06
2.1114e-08
1.45085e-06
2.03433e-08
1.4354e-06
2.00502e-08
1.42042e-06
1.94871e-08
1.40576e-06
1.89636e-08
1.3916e-06
1.83785e-08
1.37766e-06
1.81164e-08
1.36442e-06
1.7079e-08
1.35125e-06
1.71075e-08
1.33886e-06
1.60385e-08
1.32663e-06
1.57787e-08
1.31509e-06
1.50036e-08
1.30381e-06
1.45146e-08
1.29327e-06
1.36441e-08
1.28276e-06
1.35836e-08
1.27318e-06
1.2351e-08
1.26349e-06
1.26127e-08
1.25479e-06
1.1253e-08
1.24577e-06
1.17415e-08
1.20965e-08
4.49774e-06
6.15749e-08
4.50338e-06
8.53804e-08
4.5069e-06
1.02342e-07
4.50645e-06
1.0889e-07
4.50491e-06
1.105e-07
4.50421e-06
1.11981e-07
4.50415e-06
1.15508e-07
4.50398e-06
1.20407e-07
4.50323e-06
1.25824e-07
4.50174e-06
1.3137e-07
4.49948e-06
1.37086e-07
4.49637e-06
1.43067e-07
4.4923e-06
1.49405e-07
4.48708e-06
1.56071e-07
4.4806e-06
1.62914e-07
4.4727e-06
1.70044e-07
4.46323e-06
1.77255e-07
4.45204e-06
1.84321e-07
4.43904e-06
1.91098e-07
4.4241e-06
1.97537e-07
4.40715e-06
2.03081e-07
4.3882e-06
2.06964e-07
4.36715e-06
2.0793e-07
4.34428e-06
2.05184e-07
4.31962e-06
1.97836e-07
4.29347e-06
1.846e-07
4.26629e-06
1.65543e-07
4.23885e-06
1.43017e-07
4.21212e-06
1.20632e-07
4.18667e-06
1.0213e-07
4.16226e-06
8.94055e-08
4.13824e-06
8.16214e-08
4.11411e-06
7.7357e-08
4.08967e-06
7.51727e-08
4.06478e-06
7.41082e-08
4.03943e-06
7.39464e-08
4.01352e-06
7.45455e-08
3.98701e-06
7.53918e-08
3.95985e-06
7.62589e-08
3.93207e-06
7.70057e-08
3.90363e-06
7.77462e-08
3.87458e-06
7.8253e-08
3.84492e-06
7.86073e-08
3.81469e-06
7.87706e-08
3.78395e-06
7.87295e-08
3.75275e-06
7.84539e-08
3.72113e-06
7.80877e-08
3.68916e-06
7.75351e-08
3.65685e-06
7.69362e-08
3.62429e-06
7.6196e-08
3.59147e-06
7.54916e-08
3.55846e-06
7.46969e-08
3.52525e-06
7.39575e-08
3.49198e-06
7.29842e-08
3.45859e-06
7.21397e-08
3.42519e-06
7.11342e-08
3.39178e-06
7.02182e-08
3.35846e-06
6.90573e-08
3.3252e-06
6.80574e-08
3.29212e-06
6.68517e-08
3.25915e-06
6.58079e-08
3.22643e-06
6.46363e-08
3.19383e-06
6.37273e-08
3.16145e-06
6.27659e-08
3.1292e-06
6.1959e-08
3.09722e-06
6.09752e-08
3.06543e-06
6.01488e-08
3.03399e-06
5.89992e-08
3.00281e-06
5.81595e-08
2.97202e-06
5.69895e-08
2.94148e-06
5.63273e-08
2.91133e-06
5.53252e-08
2.88135e-06
5.47678e-08
2.85184e-06
5.381e-08
2.82256e-06
5.30493e-08
2.79379e-06
5.20265e-08
2.76529e-06
5.12672e-08
2.73732e-06
5.01533e-08
2.70959e-06
4.96786e-08
2.6824e-06
4.84395e-08
2.65542e-06
4.80917e-08
2.62914e-06
4.66257e-08
2.60301e-06
4.61823e-08
2.57767e-06
4.48252e-08
2.55252e-06
4.41113e-08
2.52818e-06
4.27192e-08
2.50407e-06
4.22274e-08
2.4809e-06
4.02546e-08
2.45786e-06
4.01422e-08
2.43591e-06
3.79856e-08
2.41409e-06
3.76021e-08
2.39347e-06
3.56208e-08
2.37297e-06
3.50219e-08
2.35382e-06
3.27917e-08
2.33464e-06
3.2766e-08
2.31679e-06
3.02002e-08
2.29899e-06
3.04084e-08
2.28272e-06
2.75281e-08
2.26603e-06
2.84228e-08
2.79664e-08
4.8584e-06
6.24294e-08
4.86257e-06
8.12117e-08
4.86719e-06
9.77216e-08
4.86864e-06
1.07442e-07
4.86797e-06
1.11172e-07
4.86768e-06
1.12268e-07
4.86821e-06
1.14976e-07
4.86948e-06
1.19138e-07
4.87095e-06
1.24359e-07
4.87229e-06
1.30033e-07
4.87346e-06
1.35912e-07
4.87452e-06
1.42002e-07
4.8755e-06
1.48425e-07
4.87636e-06
1.55218e-07
4.87706e-06
1.62216e-07
4.87759e-06
1.69509e-07
4.87792e-06
1.76924e-07
4.87802e-06
1.84226e-07
4.87787e-06
1.91248e-07
4.87747e-06
1.97932e-07
4.87682e-06
2.03736e-07
4.87588e-06
2.07899e-07
4.87441e-06
2.09404e-07
4.87224e-06
2.07349e-07
4.86919e-06
2.00892e-07
4.8648e-06
1.88984e-07
4.85877e-06
1.71571e-07
4.85126e-06
1.50529e-07
4.84287e-06
1.29028e-07
4.83435e-06
1.10643e-07
4.82608e-06
9.76803e-08
4.81785e-06
8.98476e-08
4.80942e-06
8.57903e-08
4.8007e-06
8.38879e-08
4.79155e-06
8.32647e-08
4.78206e-06
8.34316e-08
4.77223e-06
8.43779e-08
4.76204e-06
8.5585e-08
4.75138e-06
8.69164e-08
4.74027e-06
8.81123e-08
4.72862e-06
8.93976e-08
4.71645e-06
9.04256e-08
4.70368e-06
9.13715e-08
4.69036e-06
9.20989e-08
4.6764e-06
9.26837e-08
4.66188e-06
9.29743e-08
4.64673e-06
9.32427e-08
4.63101e-06
9.32553e-08
4.61466e-06
9.32843e-08
4.59775e-06
9.31055e-08
4.58022e-06
9.30172e-08
4.56213e-06
9.27853e-08
4.54342e-06
9.26702e-08
4.52418e-06
9.22214e-08
4.50434e-06
9.19841e-08
4.48399e-06
9.14865e-08
4.46307e-06
9.11384e-08
4.4417e-06
9.04269e-08
4.41979e-06
8.99693e-08
4.39749e-06
8.91475e-08
4.37467e-06
8.86242e-08
4.35153e-06
8.77787e-08
4.32785e-06
8.74051e-08
4.30384e-06
8.67838e-08
4.27929e-06
8.65095e-08
4.25439e-06
8.58702e-08
4.22903e-06
8.55098e-08
4.20337e-06
8.46543e-08
4.17733e-06
8.42047e-08
4.15106e-06
8.32592e-08
4.12434e-06
8.3047e-08
4.0975e-06
8.21631e-08
4.07011e-06
8.21556e-08
4.04274e-06
8.11821e-08
4.01491e-06
8.08818e-08
3.98711e-06
7.98253e-08
3.95901e-06
7.93684e-08
3.93091e-06
7.82566e-08
3.90259e-06
7.79914e-08
3.87434e-06
7.66931e-08
3.84577e-06
7.66572e-08
3.81763e-06
7.47667e-08
3.78898e-06
7.48326e-08
3.76095e-06
7.28602e-08
3.73257e-06
7.24881e-08
3.70465e-06
7.06391e-08
3.67668e-06
7.02006e-08
3.64926e-06
6.76751e-08
3.62163e-06
6.77661e-08
3.59502e-06
6.46017e-08
3.56797e-06
6.46445e-08
3.54222e-06
6.13755e-08
3.51617e-06
6.10686e-08
3.49137e-06
5.75925e-08
3.46647e-06
5.76681e-08
3.44275e-06
5.39216e-08
3.4189e-06
5.42573e-08
3.39671e-06
4.97142e-08
3.37396e-06
5.11741e-08
4.95252e-08
5.24823e-06
6.28273e-08
5.25119e-06
7.82495e-08
5.25533e-06
9.35868e-08
5.2579e-06
1.04869e-07
5.25836e-06
1.10719e-07
5.25806e-06
1.12561e-07
5.25825e-06
1.14786e-07
5.25936e-06
1.18029e-07
5.26101e-06
1.22708e-07
5.26272e-06
1.28324e-07
5.26432e-06
1.34318e-07
5.26589e-06
1.40427e-07
5.26748e-06
1.46834e-07
5.26913e-06
1.5357e-07
5.27082e-06
1.60526e-07
5.27263e-06
1.67702e-07
5.27452e-06
1.75026e-07
5.27657e-06
1.82178e-07
5.27879e-06
1.89034e-07
5.28127e-06
1.95451e-07
5.28402e-06
2.00978e-07
5.28707e-06
2.04856e-07
5.29017e-06
2.06301e-07
5.29315e-06
2.04374e-07
5.29572e-06