/*--------------------------------*- C++ -*----------------------------------*\
| =========                 |                                                 |
| \\      /  F ield         | OpenFOAM: The Open Source CFD Toolbox           |
|  \\    /   O peration     | Version:  v2106                                 |
|   \\  /    A nd           | Website:  www.openfoam.com                      |
|    \\/     M anipulation  |                                                 |
\*---------------------------------------------------------------------------*/
FoamFile
{
    version     2.0;
    format      ascii;
    arch        "LSB;label=32;scalar=64";
    class       volVectorField;
    location    "1.5";
    object      U;
}
// * * * * * * * * * * * * * * * * * * * * * * * * * * * * * * * * * * * * * //

dimensions      [0 1 -1 0 0 0 0];

internalField   nonuniform List<vector> 
4800
(
(0.960363 1.0139e-05 0)
(1.03898 -0.00025876 0)
(0.964045 0.000124226 0)
(1.03534 -0.000500647 0)
(0.967281 -5.22932e-05 0)
(1.03179 -0.000503951 0)
(0.970338 0.00017836 0)
(1.02858 -6.37968e-05 0)
(0.973853 0.000509331 0)
(1.02593 -7.44948e-05 0)
(0.977097 0.000136438 0)
(1.02287 -0.000426025 0)
(0.979507 -4.52201e-05 0)
(1.01977 -0.00057515 0)
(0.981404 -0.000112755 0)
(1.01673 -0.000546206 0)
(0.982979 -5.62607e-05 0)
(1.01363 -0.000575327 0)
(0.983733 0.000240484 0)
(1.01035 0.000627278 0)
(0.982711 -5.8389e-05 0)
(1.0147 -0.00022676 0)
(0.986739 7.79184e-05 0)
(1.01136 -0.000471716 0)
(0.989825 -9.39994e-05 0)
(1.00846 -0.000484224 0)
(0.992302 0.000160049 0)
(1.0062 -7.53385e-05 0)
(0.994804 0.000492755 0)
(1.00476 -0.000116095 0)
(0.996763 0.000120531 0)
(1.00319 -0.000479692 0)
(0.99774 -7.28112e-05 0)
(1.0017 -0.000623352 0)
(0.998094 -0.000116717 0)
(1.00031 -0.000584027 0)
(0.998063 4.92019e-05 0)
(0.998885 -0.000294192 0)
(0.997508 0.000967196 0)
(0.997399 0.00179286 0)
(0.995943 4.30982e-05 0)
(1.00272 -0.000293134 0)
(0.99748 0.000153127 0)
(1.00179 -0.000501539 0)
(0.998382 -3.30639e-05 0)
(1.00099 -0.00047605 0)
(0.998945 0.000139692 0)
(1.00059 -7.22826e-05 0)
(0.99969 0.000366534 0)
(1.00075 -3.57126e-05 0)
(1.00022 2.01051e-05 0)
(1.00051 -0.000273805 0)
(1.00013 -0.000207728 0)
(1.00006 -0.000418209 0)
(0.999673 -0.000270629 0)
(0.999463 -0.000315513 0)
(0.999092 2.91504e-05 0)
(0.998689 0.000349066 0)
(0.998223 0.00122159 0)
(0.997797 0.00228294 0)
(0.999437 1.54203e-06 0)
(1.00026 -0.000298159 0)
(0.999846 9.87641e-05 0)
(1.0003 -0.000493144 0)
(0.999978 -0.000106377 0)
(1.00016 -0.000432139 0)
(1.00003 6.73404e-05 0)
(1.0002 3.40115e-06 0)
(1.00038 0.000281878 0)
(1.00059 5.37376e-05 0)
(1.00066 -9.85144e-05 0)
(1.00053 -0.000258225 0)
(1.00045 -0.000321913 0)
(1.00019 -0.000415162 0)
(0.99996 -0.000350609 0)
(0.999683 -0.000229344 0)
(0.999395 6.46705e-05 0)
(0.999015 0.00050834 0)
(0.998671 0.00143598 0)
(0.998288 0.00252713 0)
(1.00001 3.56939e-05 0)
(0.999963 -0.000287184 0)
(1.00021 7.6048e-05 0)
(1.00018 -0.00042811 0)
(1.00023 -0.000137297 0)
(1.00015 -0.000344134 0)
(1.00023 -1.0169e-05 0)
(1.00024 6.12737e-05 0)
(1.00054 0.000163246 0)
(1.00063 5.92454e-05 0)
(1.00078 -0.00016094 0)
(1.00059 -0.000249403 0)
(1.00057 -0.000356995 0)
(1.00028 -0.000382536 0)
(1.0001 -0.00030897 0)
(0.999816 -0.000146271 0)
(0.999604 0.000239222 0)
(0.999287 0.000972595 0)
(0.999033 0.00186641 0)
(0.998636 0.00280772 0)
(1.00011 1.29974e-05 0)
(0.999903 -0.000263912 0)
(1.00029 2.9639e-06 0)
(1.00013 -0.00037921 0)
(1.00031 -0.000227096 0)
(1.00012 -0.000274094 0)
(1.00033 -9.64284e-05 0)
(1.00024 7.6694e-05 0)
(1.0006 0.000107833 0)
(1.00061 3.51958e-05 0)
(1.00083 -0.000217155 0)
(1.00058 -0.000248599 0)
(1.00062 -0.000394669 0)
(1.00029 -0.000350796 0)
(1.00018 -0.00026925 0)
(0.999889 2.31668e-05 0)
(0.999808 0.00067886 0)
(0.999488 0.00143063 0)
(0.999292 0.00212919 0)
(0.998869 0.00288911 0)
(1.00016 1.70761e-05 0)
(0.999872 -0.000237229 0)
(1.00034 -6.85063e-05 0)
(1.00009 -0.000308508 0)
(1.00036 -0.000275784 0)
(1.0001 -0.000232292 0)
(1.00038 -0.000122041 0)
(1.00022 2.00312e-05 0)
(1.00064 4.99096e-05 0)
(1.00057 -1.97864e-05 0)
(1.00084 -0.000221225 0)
(1.00055 -0.000285985 0)
(1.00064 -0.000353312 0)
(1.00029 -0.000325281 0)
(1.00026 -6.64824e-05 0)
(1.00001 0.000470091 0)
(0.999994 0.00110849 0)
(0.999635 0.00167822 0)
(0.999487 0.00223143 0)
(0.999064 0.00288 0)
(1.00016 1.09852e-05 0)
(0.999883 -0.000195827 0)
(1.00034 -0.000140035 0)
(1.00009 -0.000303274 0)
(1.00036 -0.000277475 0)
(1.00011 -0.000262227 0)
(1.00039 -0.000145691 0)
(1.00024 -1.23905e-05 0)
(1.00063 -1.52744e-05 0)
(1.00057 -4.79866e-05 0)
(1.00082 -0.000250864 0)
(1.00055 -0.000281819 0)
(1.00065 -0.000289684 0)
(1.00034 -0.000159932 0)
(1.00038 0.000369955 0)
(1.00014 0.000833214 0)
(1.00012 0.00127135 0)
(0.999773 0.00173084 0)
(0.999655 0.00224375 0)
(0.999273 0.00284406 0)
(1.00012 -3.05317e-06 0)
(0.999927 -0.000170149 0)
(1.00031 -0.000181052 0)
(1.00013 -0.000325884 0)
(1.00033 -0.000276433 0)
(1.00016 -0.000267915 0)
(1.00037 -0.000196927 0)
(1.00028 -7.22392e-05 0)
(1.00061 -5.27354e-05 0)
(1.00058 -0.000105459 0)
(1.00079 -0.000253305 0)
(1.00059 -0.000262984 0)
(1.00066 -0.000136279 0)
(1.00047 0.000261696 0)
(1.00046 0.000693394 0)
(1.00025 0.000988462 0)
(1.00021 0.00132297 0)
(0.999933 0.00176348 0)
(0.999817 0.00227754 0)
(0.999497 0.00284406 0)
(1.00007 5.63878e-06 0)
(0.999985 -0.000171338 0)
(1.00026 -0.00016373 0)
(1.00018 -0.000383095 0)
(1.00029 -0.000303459 0)
(1.00021 -0.000296835 0)
(1.00035 -0.000242059 0)
(1.00033 -0.000119607 0)
(1.00057 -0.000103101 0)
(1.00061 -0.000132673 0)
(1.00075 -0.000229392 0)
(1.00064 -0.000114164 0)
(1.00071 0.00026478 0)
(1.00058 0.00054261 0)
(1.00051 0.000819641 0)
(1.00035 0.00106822 0)
(1.00031 0.00138458 0)
(1.00011 0.00181945 0)
(0.999986 0.00232796 0)
(0.999727 0.00286531 0)
(1.00003 -2.09565e-05 0)
(1.00002 -0.000108715 0)
(1.00022 -0.0002072 0)
(1.00021 -0.000358376 0)
(1.00027 -0.000403779 0)
(1.00024 -0.00032201 0)
(1.00033 -0.000280812 0)
(1.00037 -0.000148501 0)
(1.00055 -0.00014894 0)
(1.00062 -9.78301e-05 0)
(1.00075 -8.29663e-05 0)
(1.00075 0.000250886 0)
(1.00076 0.000500114 0)
(1.00065 0.000620615 0)
(1.00056 0.000840869 0)
(1.00045 0.00111938 0)
(1.00041 0.00144849 0)
(1.00028 0.00187726 0)
(1.00017 0.00237254 0)
(0.999953 0.00288393 0)
(1.00001 -1.59718e-06 0)
(1.00004 -0.000121487 0)
(1.00019 -0.000196543 0)
(1.00022 -0.000391655 0)
(1.00026 -0.000464706 0)
(1.00027 -0.00042136 0)
(1.00034 -0.000306884 0)
(1.0004 -0.000185701 0)
(1.00055 -0.000115154 0)
(1.00066 6.51188e-06 0)
(1.0008 0.000262304 0)
(1.0008 0.000425945 0)
(1.00077 0.000545411 0)
(1.0007 0.000658567 0)
(1.00063 0.000889928 0)
(1.00056 0.00119613 0)
(1.00054 0.00154052 0)
(1.00046 0.00195477 0)
(1.00036 0.00242646 0)
(1.00017 0.00290815 0)
(1.00001 -3.65693e-05 0)
(1.00005 -6.66722e-05 0)
(1.00018 -0.000236806 0)
(1.00021 -0.00036408 0)
(1.00026 -0.000533716 0)
(1.00029 -0.000500229 0)
(1.00036 -0.000375226 0)
(1.00042 -0.0001303 0)
(1.00058 1.64777e-05 0)
(1.00072 0.000273895 0)
(1.00083 0.000393104 0)
(1.00082 0.000451963 0)
(1.00081 0.000580564 0)
(1.00075 0.000732243 0)
(1.00071 0.000970886 0)
(1.00067 0.00128432 0)
(1.00067 0.00163316 0)
(1.00063 0.00202869 0)
(1.00056 0.00247216 0)
(1.00039 0.00291822 0)
(1.00001 -1.67694e-05 0)
(1.00004 -0.000108438 0)
(1.00017 -0.00020904 0)
(1.0002 -0.000423648 0)
(1.00024 -0.000507821 0)
(1.00031 -0.000576615 0)
(1.0004 -0.000378013 0)
(1.00048 -5.36355e-05 0)
(1.00063 0.000251225 0)
(1.00074 0.000406839 0)
(1.00083 0.000438826 0)
(1.00085 0.000495399 0)
(1.00085 0.000635206 0)
(1.00082 0.000812253 0)
(1.0008 0.00105528 0)
(1.0008 0.00136711 0)
(1.00082 0.00171626 0)
(1.0008 0.00209626 0)
(1.00076 0.00250992 0)
(1.0006 0.00291851 0)
(1 -3.94384e-05 0)
(1.00004 -0.000128301 0)
(1.00015 -0.00021994 0)
(1.00019 -0.000450795 0)
(1.00024 -0.000499351 0)
(1.00033 -0.000492222 0)
(1.00046 -0.000302935 0)
(1.00055 2.76592e-05 0)
(1.00067 0.000275036 0)
(1.00076 0.000403612 0)
(1.00085 0.000477091 0)
(1.00088 0.000558063 0)
(1.0009 0.000709757 0)
(1.00089 0.000903398 0)
(1.00091 0.00114986 0)
(1.00092 0.00144966 0)
(1.00097 0.00178899 0)
(1.00098 0.00214824 0)
(1.00096 0.00253064 0)
(1.00081 0.00290474 0)
(1 -3.56823e-05 0)
(1.00004 -0.000169833 0)
(1.00014 -0.000255268 0)
(1.00018 -0.000441165 0)
(1.00025 -0.000495297 0)
(1.00036 -0.000365451 0)
(1.00051 -0.000161801 0)
(1.00061 5.18838e-05 0)
(1.00072 0.000249164 0)
(1.0008 0.000393764 0)
(1.00088 0.000509835 0)
(1.00093 0.000618968 0)
(1.00096 0.000775147 0)
(1.00097 0.00097626 0)
(1.00101 0.00122281 0)
(1.00106 0.00151017 0)
(1.00113 0.00183412 0)
(1.00117 0.00217259 0)
(1.00116 0.00252888 0)
(1.00103 0.0028741 0)
(1.00001 -4.63739e-05 0)
(1.00004 -0.000208722 0)
(1.00014 -0.000303831 0)
(1.00018 -0.0004087 0)
(1.00028 -0.000435288 0)
(1.00041 -0.000277061 0)
(1.00056 -7.35183e-05 0)
(1.00066 0.000123056 0)
(1.00077 0.00029458 0)
(1.00085 0.000432632 0)
(1.00093 0.000561328 0)
(1.00098 0.000688698 0)
(1.00104 0.000851112 0)
(1.00107 0.00105843 0)
(1.00113 0.00130692 0)
(1.0012 0.00158408 0)
(1.0013 0.00189087 0)
(1.00135 0.00220831 0)
(1.00136 0.00254105 0)
(1.00124 0.00285973 0)
(1.00001 -5.34202e-05 0)
(1.00004 -0.000224525 0)
(1.00015 -0.000351928 0)
(1.00019 -0.000377389 0)
(1.00031 -0.000330739 0)
(1.00047 -0.000205641 0)
(1.00062 -8.44341e-06 0)
(1.00072 0.00017183 0)
(1.00083 0.000329734 0)
(1.0009 0.000463185 0)
(1.00099 0.000600231 0)
(1.00105 0.000744326 0)
(1.00112 0.000915744 0)
(1.00118 0.00112556 0)
(1.00126 0.0013705 0)
(1.00136 0.001636 0)
(1.00147 0.00192587 0)
(1.00155 0.00222232 0)
(1.00157 0.00253283 0)
(1.00146 0.00282667 0)
(1.00001 -6.23134e-05 0)
(1.00004 -0.000230634 0)
(1.00017 -0.000367639 0)
(1.00023 -0.000368216 0)
(1.00036 -0.000243656 0)
(1.00052 -0.000118846 0)
(1.00068 3.95909e-05 0)
(1.00078 0.000200949 0)
(1.00089 0.000360116 0)
(1.00096 0.000495888 0)
(1.00106 0.000638739 0)
(1.00112 0.000792819 0)
(1.00122 0.000969311 0)
(1.00129 0.00117673 0)
(1.0014 0.00141707 0)
(1.00151 0.00167303 0)
(1.00165 0.00195033 0)
(1.00175 0.002228 0)
(1.00178 0.00251724 0)
(1.00168 0.00278775 0)
(1.00001 -6.21348e-05 0)
(1.00004 -0.000237782 0)
(1.00018 -0.000352548 0)
(1.00027 -0.000340584 0)
(1.00041 -0.000191122 0)
(1.00058 -5.68882e-05 0)
(1.00075 9.58158e-05 0)
(1.00085 0.000241683 0)
(1.00095 0.000395149 0)
(1.00103 0.00053122 0)
(1.00113 0.000678831 0)
(1.00121 0.000841524 0)
(1.00132 0.00102369 0)
(1.00142 0.00123002 0)
(1.00155 0.00146688 0)
(1.00168 0.00171448 0)
(1.00184 0.00197852 0)
(1.00195 0.00223651 0)
(1.002 0.00250301 0)
(1.0019 0.00274992 0)
(1.00001 -6.32299e-05 0)
(1.00004 -0.000228141 0)
(1.0002 -0.000320302 0)
(1.00031 -0.000300155 0)
(1.00048 -0.000159173 0)
(1.00064 -2.01622e-05 0)
(1.00081 0.000140425 0)
(1.00092 0.000277832 0)
(1.00103 0.000429313 0)
(1.00111 0.000568594 0)
(1.00122 0.000721692 0)
(1.00131 0.00088944 0)
(1.00144 0.00107578 0)
(1.00155 0.00127803 0)
(1.00171 0.00150718 0)
(1.00185 0.0017421 0)
(1.00203 0.00199014 0)
(1.00215 0.00222809 0)
(1.00221 0.00247291 0)
(1.00212 0.00269843 0)
(1.00001 -6.05121e-05 0)
(1.00005 -0.000202799 0)
(1.00023 -0.000282283 0)
(1.00036 -0.000257259 0)
(1.00054 -0.000124476 0)
(1.00071 6.02839e-06 0)
(1.00088 0.000170889 0)
(1.00099 0.000312194 0)
(1.0011 0.000467403 0)
(1.00119 0.000607458 0)
(1.00131 0.000761526 0)
(1.00142 0.00092884 0)
(1.00156 0.00111702 0)
(1.00169 0.00131598 0)
(1.00186 0.00153592 0)
(1.00203 0.00175891 0)
(1.00222 0.00199116 0)
(1.00235 0.00221251 0)
(1.00243 0.00243733 0)
(1.00234 0.00264394 0)
(1.00001 -5.72481e-05 0)
(1.00005 -0.000170439 0)
(1.00025 -0.000239322 0)
(1.00041 -0.000218881 0)
(1.0006 -9.02767e-05 0)
(1.00078 3.00644e-05 0)
(1.00096 0.000196059 0)
(1.00107 0.000339981 0)
(1.00119 0.000501051 0)
(1.00128 0.000644102 0)
(1.00141 0.000797737 0)
(1.00153 0.000964888 0)
(1.00169 0.00115148 0)
(1.00184 0.00134732 0)
(1.00203 0.00155752 0)
(1.00221 0.00176794 0)
(1.00241 0.00198452 0)
(1.00256 0.00218924 0)
(1.00264 0.00239548 0)
(1.00255 0.00258309 0)
(1.00001 -5.0824e-05 0)
(1.00006 -0.000138732 0)
(1.00027 -0.000195579 0)
(1.00045 -0.000182524 0)
(1.00066 -5.71419e-05 0)
(1.00085 5.93582e-05 0)
(1.00104 0.000220024 0)
(1.00116 0.000365216 0)
(1.00127 0.000530839 0)
(1.00137 0.000679466 0)
(1.00151 0.000832921 0)
(1.00165 0.000997669 0)
(1.00182 0.00117935 0)
(1.00199 0.00136964 0)
(1.0022 0.00157048 0)
(1.00239 0.0017677 0)
(1.0026 0.0019693 0)
(1.00275 0.00215688 0)
(1.00284 0.00234634 0)
(1.00276 0.00251541 0)
(1.00001 -4.35721e-05 0)
(1.00007 -0.000110747 0)
(1.00029 -0.000151776 0)
(1.0005 -0.000143321 0)
(1.00072 -2.30833e-05 0)
(1.00092 9.1334e-05 0)
(1.00112 0.000245712 0)
(1.00124 0.000387052 0)
(1.00137 0.000556027 0)
(1.00146 0.000710719 0)
(1.00162 0.000864589 0)
(1.00177 0.00102453 0)
(1.00196 0.00119933 0)
(1.00214 0.00138161 0)
(1.00236 0.00157322 0)
(1.00257 0.00175742 0)
(1.00278 0.00194498 0)
(1.00295 0.00211566 0)
(1.00304 0.00228888 0)
(1.00296 0.00244086 0)
(1.00001 -3.49722e-05 0)
(1.00007 -8.58942e-05 0)
(1.00031 -0.000109623 0)
(1.00053 -0.000104237 0)
(1.00078 1.0481e-05 0)
(1.00099 0.000123038 0)
(1.00119 0.000272977 0)
(1.00133 0.000407891 0)
(1.00146 0.000576606 0)
(1.00156 0.000735532 0)
(1.00173 0.000891352 0)
(1.00189 0.00104503 0)
(1.0021 0.00121147 0)
(1.0023 0.00138271 0)
(1.00253 0.00156328 0)
(1.00274 0.00173461 0)
(1.00297 0.00190872 0)
(1.00314 0.00206444 0)
(1.00324 0.00222206 0)
(1.00316 0.00235929 0)
(1.00001 -2.57933e-05 0)
(1.00008 -6.4389e-05 0)
(1.00033 -7.18587e-05 0)
(1.00057 -6.43219e-05 0)
(1.00084 4.52556e-05 0)
(1.00105 0.000155478 0)
(1.00127 0.000300595 0)
(1.00141 0.000428783 0)
(1.00156 0.000591827 0)
(1.00167 0.000751038 0)
(1.00184 0.000909428 0)
(1.00201 0.00105819 0)
(1.00224 0.00121642 0)
(1.00245 0.00137522 0)
(1.00269 0.00154355 0)
(1.00291 0.00170146 0)
(1.00315 0.00186245 0)
(1.00332 0.0020047 0)
(1.00342 0.00214772 0)
(1.00335 0.00227113 0)
(1.00001 -1.70091e-05 0)
(1.00008 -4.55401e-05 0)
(1.00034 -3.49336e-05 0)
(1.0006 -2.49633e-05 0)
(1.00089 7.58435e-05 0)
(1.00112 0.000185914 0)
(1.00134 0.000328445 0)
(1.0015 0.000448226 0)
(1.00166 0.000603835 0)
(1.00178 0.00075758 0)
(1.00195 0.000917919 0)
(1.00213 0.00106291 0)
(1.00237 0.0012139 0)
(1.0026 0.00136027 0)
(1.00285 0.00151479 0)
(1.00308 0.00165903 0)
(1.00332 0.00180538 0)
(1.0035 0.00193514 0)
(1.0036 0.002064 0)
(1.00353 0.00217452 0)
(1.00001 -7.56267e-06 0)
(1.00009 -2.87119e-05 0)
(1.00035 -3.81531e-06 0)
(1.00063 1.29242e-05 0)
(1.00094 0.000106694 0)
(1.00118 0.000209764 0)
(1.00141 0.000352503 0)
(1.00158 0.000468839 0)
(1.00176 0.000613851 0)
(1.00189 0.000758099 0)
(1.00207 0.000913488 0)
(1.00225 0.00105385 0)
(1.0025 0.00119705 0)
(1.00274 0.00133227 0)
(1.003 0.00147391 0)
(1.00325 0.00160527 0)
(1.00349 0.00173866 0)
(1.00367 0.00185621 0)
(1.00377 0.00197344 0)
(1.0037 0.00207204 0)
(1.00001 5.76391e-07 0)
(1.00009 -1.2235e-05 0)
(1.00037 2.36455e-05 0)
(1.00066 4.63128e-05 0)
(1.00099 0.000136551 0)
(1.00125 0.000231231 0)
(1.00148 0.000366891 0)
(1.00166 0.000483183 0)
(1.00186 0.000620217 0)
(1.002 0.000754181 0)
(1.00218 0.00090218 0)
(1.00238 0.00103623 0)
(1.00263 0.00117136 0)
(1.00288 0.00129511 0)
(1.00315 0.0014236 0)
(1.0034 0.0015413 0)
(1.00365 0.00166157 0)
(1.00383 0.00176647 0)
(1.00393 0.00187205 0)
(1.00386 0.00195993 0)
(1.00001 7.23782e-06 0)
(1.0001 3.50964e-06 0)
(1.00038 4.60622e-05 0)
(1.00068 7.54042e-05 0)
(1.00103 0.000160194 0)
(1.00131 0.000251002 0)
(1.00155 0.000380109 0)
(1.00174 0.000489567 0)
(1.00194 0.000620712 0)
(1.0021 0.000740659 0)
(1.0023 0.000879126 0)
(1.00249 0.00100509 0)
(1.00275 0.0011328 0)
(1.00301 0.00124661 0)
(1.00329 0.00136292 0)
(1.00355 0.00146814 0)
(1.0038 0.00157568 0)
(1.00398 0.001669 0)
(1.00408 0.00176292 0)
(1.00401 0.00184128 0)
(1.00001 1.40188e-05 0)
(1.00011 1.46109e-05 0)
(1.00039 6.40289e-05 0)
(1.00071 0.000100992 0)
(1.00107 0.000181587 0)
(1.00136 0.000261952 0)
(1.00162 0.000386259 0)
(1.00181 0.000489632 0)
(1.00203 0.00061394 0)
(1.0022 0.000723608 0)
(1.00241 0.000847361 0)
(1.00261 0.00096428 0)
(1.00287 0.00108177 0)
(1.00313 0.0011863 0)
(1.00342 0.00129087 0)
(1.00368 0.00138405 0)
(1.00393 0.00147976 0)
(1.00412 0.00156182 0)
(1.00422 0.00164519 0)
(1.00415 0.00171389 0)
(1.00001 1.80528e-05 0)
(1.00011 2.7685e-05 0)
(1.00041 7.8254e-05 0)
(1.00073 0.00011657 0)
(1.0011 0.00019938 0)
(1.00141 0.000271618 0)
(1.00168 0.000381379 0)
(1.00189 0.000480815 0)
(1.00211 0.000596626 0)
(1.00229 0.000698058 0)
(1.00251 0.000810107 0)
(1.00272 0.000913035 0)
(1.00299 0.00102092 0)
(1.00325 0.00111363 0)
(1.00354 0.00120847 0)
(1.0038 0.00128948 0)
(1.00406 0.00137426 0)
(1.00425 0.00144547 0)
(1.00435 0.00151896 0)
(1.00428 0.00157868 0)
(1.00001 2.07752e-05 0)
(1.00012 3.74188e-05 0)
(1.00042 9.0513e-05 0)
(1.00075 0.000127163 0)
(1.00114 0.000206344 0)
(1.00146 0.000276299 0)
(1.00174 0.000373665 0)
(1.00196 0.000461156 0)
(1.00219 0.000566148 0)
(1.00237 0.000657258 0)
(1.0026 0.000760739 0)
(1.00282 0.000850149 0)
(1.00309 0.000948125 0)
(1.00336 0.00102952 0)
(1.00365 0.00111548 0)
(1.00392 0.0011859 0)
(1.00417 0.00126038 0)
(1.00436 0.00132134 0)
(1.00447 0.00138531 0)
(1.00439 0.00143651 0)
(1.00001 2.39192e-05 0)
(1.00012 4.25177e-05 0)
(1.00043 9.67806e-05 0)
(1.00077 0.000133107 0)
(1.00116 0.000206214 0)
(1.0015 0.000265365 0)
(1.00179 0.000354454 0)
(1.00202 0.000435342 0)
(1.00226 0.000526008 0)
(1.00245 0.000608856 0)
(1.00269 0.00070049 0)
(1.00291 0.000779566 0)
(1.00319 0.000864741 0)
(1.00345 0.000934639 0)
(1.00375 0.00101082 0)
(1.00401 0.00107066 0)
(1.00427 0.00113615 0)
(1.00447 0.00118667 0)
(1.00457 0.00124249 0)
(1.00449 0.00128498 0)
(1.00001 2.39198e-05 0)
(1.00012 4.77145e-05 0)
(1.00044 9.85596e-05 0)
(1.00079 0.000128778 0)
(1.00119 0.000200496 0)
(1.00153 0.000251636 0)
(1.00184 0.000322304 0)
(1.00207 0.000399952 0)
(1.00232 0.000476215 0)
(1.00252 0.000546692 0)
(1.00276 0.000628287 0)
(1.003 0.00069339 0)
(1.00327 0.000769972 0)
(1.00354 0.000826171 0)
(1.00384 0.000893979 0)
(1.00411 0.000943535 0)
(1.00437 0.00100077 0)
(1.00455 0.00104315 0)
(1.00466 0.00109035 0)
(1.00458 0.00112674 0)
(1.00001 2.36496e-05 0)
(1.00013 4.75632e-05 0)
(1.00044 9.80097e-05 0)
(1.0008 0.00012246 0)
(1.00121 0.000182833 0)
(1.00155 0.000227444 0)
(1.00187 0.000285998 0)
(1.00212 0.0003471 0)
(1.00237 0.000416956 0)
(1.00259 0.000471634 0)
(1.00283 0.000543722 0)
(1.00307 0.000596081 0)
(1.00334 0.000661863 0)
(1.00362 0.000707871 0)
(1.00391 0.000763955 0)
(1.00418 0.000805388 0)
(1.00444 0.000852185 0)
(1.00463 0.000887726 0)
(1.00473 0.000925764 0)
(1.00465 0.000955943 0)
(1.00001 2.07557e-05 0)
(1.00013 4.40435e-05 0)
(1.00044 8.48595e-05 0)
(1.00081 0.000107726 0)
(1.00122 0.00015708 0)
(1.00157 0.00018757 0)
(1.00191 0.000238568 0)
(1.00216 0.000287221 0)
(1.00241 0.000338342 0)
(1.00263 0.000386367 0)
(1.00288 0.000439333 0)
(1.00313 0.000482715 0)
(1.00341 0.000532695 0)
(1.00368 0.000569172 0)
(1.00398 0.000613291 0)
(1.00424 0.000644686 0)
(1.00451 0.00068242 0)
(1.00469 0.000708862 0)
(1.00479 0.00073969 0)
(1.00471 0.000761687 0)
(1.00001 1.8562e-05 0)
(1.00013 3.58417e-05 0)
(1.00045 7.51908e-05 0)
(1.00081 8.80691e-05 0)
(1.00123 0.000135988 0)
(1.00158 0.00015766 0)
(1.00193 0.000196691 0)
(1.00219 0.000238901 0)
(1.00244 0.000280345 0)
(1.00268 0.000317508 0)
(1.00293 0.000365518 0)
(1.00317 0.000397523 0)
(1.00345 0.000443132 0)
(1.00373 0.000470014 0)
(1.00402 0.000509384 0)
(1.00429 0.000533226 0)
(1.00455 0.000565992 0)
(1.00474 0.000587227 0)
(1.00484 0.000613545 0)
(1.00475 0.000632016 0)
(1.00001 1.03614e-05 0)
(1.00013 1.50008e-05 0)
(1.00045 3.67269e-05 0)
(1.00082 4.03285e-05 0)
(1.00124 6.41078e-05 0)
(1.00159 7.4641e-05 0)
(1.00195 9.3209e-05 0)
(1.00222 0.000110589 0)
(1.00247 0.000134883 0)
(1.00272 0.000147529 0)
(1.00297 0.000175118 0)
(1.00322 0.000187403 0)
(1.0035 0.000212247 0)
(1.00377 0.000223719 0)
(1.00408 0.000243971 0)
(1.00434 0.000255138 0)
(1.00461 0.000271335 0)
(1.00479 0.000281894 0)
(1.00489 0.000294718 0)
(1.00481 0.000304215 0)
(0.98442 0.00212715 0)
(0.960356 0.00333931 0)
(0.936044 0.0037052 0)
(0.911229 0.00367369 0)
(0.885947 0.0035944 0)
(0.860294 0.00356591 0)
(0.834309 0.00356586 0)
(0.807951 0.00355952 0)
(0.781164 0.0035353 0)
(0.753909 0.00349598 0)
(0.72619 0.00344875 0)
(0.697988 0.00339749 0)
(0.669302 0.00334607 0)
(0.640104 0.00328886 0)
(0.610464 0.0032284 0)
(0.580331 0.00316714 0)
(0.54977 0.00309778 0)
(0.518826 0.00301689 0)
(0.487647 0.00292767 0)
(0.456273 0.00282696 0)
(0.424912 0.00270357 0)
(0.393748 0.0025461 0)
(0.36326 0.0023398 0)
(0.334015 0.00206279 0)
(0.30675 0.0016702 0)
(0.282484 0.00116745 0)
(0.262236 0.000571768 0)
(0.246682 5.80471e-05 0)
(0.235623 -0.000285977 0)
(0.228003 -0.000452195 0)
(0.222621 -0.000506081 0)
(0.218721 -0.000482924 0)
(0.215716 -0.000447179 0)
(0.21322 -0.00039914 0)
(0.210991 -0.000343548 0)
(0.20884 -0.000286577 0)
(0.206616 -0.00023385 0)
(0.204277 -0.000188313 0)
(0.201797 -0.000149821 0)
(0.199204 -0.000117852 0)
(0.196501 -9.10836e-05 0)
(0.193725 -6.91697e-05 0)
(0.190894 -5.20862e-05 0)
(0.188042 -3.80748e-05 0)
(0.185186 -2.68755e-05 0)
(0.182352 -1.81593e-05 0)
(0.179552 -1.10323e-05 0)
(0.176801 -4.78289e-06 0)
(0.174102 6.32874e-07 0)
(0.171459 4.93482e-06 0)
(0.168875 8.71348e-06 0)
(0.166348 1.20526e-05 0)
(0.163878 1.50657e-05 0)
(0.161464 1.70653e-05 0)
(0.159111 1.91107e-05 0)
(0.156815 2.04995e-05 0)
(0.154577 2.15987e-05 0)
(0.152397 2.18211e-05 0)
(0.150284 2.21935e-05 0)
(0.148229 2.20446e-05 0)
(0.14624 2.19389e-05 0)
(0.144302 2.17274e-05 0)
(0.142425 2.14994e-05 0)
(0.140578 2.13937e-05 0)
(0.138787 2.07954e-05 0)
(0.137014 2.01817e-05 0)
(0.135308 1.93862e-05 0)
(0.13362 1.82838e-05 0)
(0.132008 1.78567e-05 0)
(0.130407 1.67418e-05 0)
(0.128876 1.64522e-05 0)
(0.127335 1.55493e-05 0)
(0.125866 1.50512e-05 0)
(0.12437 1.4687e-05 0)
(0.122966 1.34379e-05 0)
(0.121525 1.32692e-05 0)
(0.120201 1.24007e-05 0)
(0.118814 1.17986e-05 0)
(0.117557 1.17369e-05 0)
(0.116212 1.05844e-05 0)
(0.115017 1.10044e-05 0)
(0.113712 9.82806e-06 0)
(0.112595 9.48991e-06 0)
(0.11133 9.51524e-06 0)
(0.110298 8.24601e-06 0)
(0.109076 8.40108e-06 0)
(0.108133 8.19406e-06 0)
(0.106946 6.81569e-06 0)
(0.106109 7.57925e-06 0)
(0.104947 6.4936e-06 0)
(0.104227 6.09627e-06 0)
(0.103085 6.43026e-06 0)
(0.102495 5.14193e-06 0)
(0.101365 5.28907e-06 0)
(0.100922 5.09762e-06 0)
(0.0997693 4.42772e-06 0)
(0.0994856 5.01284e-06 0)
(0.0982748 4.16372e-06 0)
(0.098182 4.6995e-06 0)
(0.0967703 6.56539e-06 0)
(0.996937 0.00401538 0)
(0.996068 0.00585398 0)
(0.994822 0.00650559 0)
(0.993157 0.00646075 0)
(0.991006 0.00630223 0)
(0.988325 0.00624858 0)
(0.985123 0.0062901 0)
(0.981324 0.00636172 0)
(0.976891 0.00642834 0)
(0.971744 0.0064843 0)
(0.965881 0.006537 0)
(0.959229 0.00659149 0)
(0.95178 0.00664937 0)
(0.943449 0.00670599 0)
(0.934253 0.00675627 0)
(0.924095 0.00680345 0)
(0.912986 0.00683982 0)
(0.900857 0.00685819 0)
(0.887764 0.00685741 0)
(0.873629 0.0068371 0)
(0.858527 0.00678475 0)
(0.84244 0.0066803 0)
(0.825564 0.00650475 0)
(0.8081 0.00622923 0)
(0.790375 0.00579409 0)
(0.772845 0.00517831 0)
(0.756097 0.00438807 0)
(0.740614 0.00354173 0)
(0.726626 0.0027575 0)
(0.713935 0.0021345 0)
(0.702191 0.00169475 0)
(0.69115 0.00139923 0)
(0.680599 0.00119651 0)
(0.670416 0.00104541 0)
(0.660507 0.000939391 0)
(0.65082 0.000872789 0)
(0.641249 0.000833581 0)
(0.631781 0.000806469 0)
(0.622372 0.000783252 0)
(0.613051 0.000761528 0)
(0.603782 0.000740249 0)
(0.594596 0.000717789 0)
(0.5855 0.000693775 0)
(0.576493 0.000668078 0)
(0.56761 0.000640952 0)
(0.558856 0.000612832 0)
(0.550258 0.000584399 0)
(0.541805 0.00055583 0)
(0.533537 0.000528318 0)
(0.525434 0.000501834 0)
(0.517529 0.000476906 0)
(0.509778 0.000452904 0)
(0.502233 0.000431278 0)
(0.494848 0.000408787 0)
(0.487666 0.00038861 0)
(0.480644 0.000368999 0)
(0.47383 0.000351188 0)
(0.467169 0.000332437 0)
(0.460719 0.000315956 0)
(0.454415 0.000299224 0)
(0.448327 0.000284463 0)
(0.442361 0.000270301 0)
(0.436609 0.00025831 0)
(0.43093 0.000247774 0)
(0.42547 0.000237604 0)
(0.420035 0.000227671 0)
(0.414841 0.000218428 0)
(0.409646 0.000207854 0)
(0.404711 0.00019963 0)
(0.399755 0.000189904 0)
(0.395059 0.000184411 0)
(0.390304 0.00017691 0)
(0.385805 0.000171314 0)
(0.3812 0.000165508 0)
(0.376915 0.000158185 0)
(0.372445 0.00015245 0)
(0.368394 0.00014599 0)
(0.364064 0.000139867 0)
(0.360227 0.000136489 0)
(0.356026 0.000128954 0)
(0.352372 0.00012683 0)
(0.348311 0.000119175 0)
(0.344871 0.000115293 0)
(0.340915 0.000110649 0)
(0.337753 0.000104429 0)
(0.333871 0.0001001 0)
(0.331007 9.69451e-05 0)
(0.327222 8.86349e-05 0)
(0.32465 8.82931e-05 0)
(0.320959 8.04613e-05 0)
(0.318728 7.74536e-05 0)
(0.315082 7.31751e-05 0)
(0.313277 6.82337e-05 0)
(0.309627 6.38379e-05 0)
(0.308295 6.19256e-05 0)
(0.304565 5.50642e-05 0)
(0.303742 5.65975e-05 0)
(0.299917 4.86063e-05 0)
(0.299632 5.11735e-05 0)
(0.295471 5.52224e-05 0)
(0.997354 0.00359899 0)
(0.996876 0.00478563 0)
(0.996558 0.00546085 0)
(0.996405 0.00559789 0)
(0.996373 0.0055387 0)
(0.996371 0.00551209 0)
(0.996397 0.00558725 0)
(0.996373 0.00572993 0)
(0.99628 0.00589636 0)
(0.996047 0.00606046 0)
(0.995685 0.00622226 0)
(0.995132 0.00638362 0)
(0.994385 0.00655093 0)
(0.99338 0.00672108 0)
(0.992123 0.00688889 0)
(0.990538 0.00705788 0)
(0.988631 0.00722146 0)
(0.986329 0.00736844 0)
(0.983662 0.00749733 0)
(0.980538 0.0076073 0)
(0.976992 0.00768307 0)
(0.972932 0.00769763 0)
(0.968428 0.00762585 0)
(0.963437 0.00743147 0)
(0.958083 0.00706402 0)
(0.952383 0.00647841 0)
(0.946572 0.0056927 0)
(0.940729 0.00479505 0)
(0.935035 0.0039234 0)
(0.929446 0.00321304 0)
(0.923955 0.00272468 0)
(0.918481 0.0024122 0)
(0.913024 0.00222345 0)
(0.907531 0.00209734 0)
(0.902011 0.00201806 0)
(0.89642 0.00197563 0)
(0.890746 0.0019582 0)
(0.88494 0.00194847 0)
(0.87902 0.00193721 0)
(0.872939 0.00192085 0)
(0.866745 0.00190207 0)
(0.860371 0.00187619 0)
(0.85391 0.00184486 0)
(0.847261 0.00180869 0)
(0.840549 0.00176704 0)
(0.833666 0.00172027 0)
(0.826754 0.00167135 0)
(0.819675 0.00161973 0)
(0.812608 0.00156728 0)
(0.80538 0.0015131 0)
(0.798199 0.00146087 0)
(0.790858 0.00140832 0)
(0.783587 0.00135781 0)
(0.776174 0.001305 0)
(0.768858 0.00125565 0)
(0.761402 0.00120532 0)
(0.75408 0.001158 0)
(0.746626 0.00110832 0)
(0.739333 0.00106279 0)
(0.731914 0.00101571 0)
(0.724691 0.000972419 0)
(0.71733 0.000929537 0)
(0.710209 0.000891358 0)
(0.702899 0.00085498 0)
(0.695889 0.000821314 0)
(0.688628 0.000787356 0)
(0.681743 0.000756247 0)
(0.674565 0.000722537 0)
(0.667827 0.000694215 0)
(0.660778 0.000662479 0)
(0.654189 0.000638834 0)
(0.647273 0.000612716 0)
(0.640845 0.000591908 0)
(0.634005 0.000568982 0)
(0.627809 0.000546962 0)
(0.621026 0.000525044 0)
(0.615101 0.00050505 0)
(0.608402 0.00048301 0)
(0.602723 0.000468621 0)
(0.596147 0.000446305 0)
(0.59067 0.000434218 0)
(0.584238 0.000411657 0)
(0.579031 0.000398254 0)
(0.57266 0.000379406 0)
(0.567861 0.000363837 0)
(0.561485 0.000345364 0)
(0.557121 0.000334192 0)
(0.550822 0.00031048 0)
(0.546843 0.000304168 0)
(0.54065 0.000280795 0)
(0.537142 0.000271451 0)
(0.530948 0.000252505 0)
(0.5281 0.000241162 0)
(0.521789 0.000221669 0)
(0.519702 0.000217375 0)
(0.513241 0.000194012 0)
(0.511852 0.00019323 0)
(0.505323 0.000170362 0)
(0.504725 0.000173458 0)
(0.497791 0.000172209 0)
(0.997859 0.00354855 0)
(0.997323 0.0045096 0)
(0.99693 0.00522349 0)
(0.996728 0.00559343 0)
(0.996752 0.00570147 0)
(0.996884 0.00572226 0)
(0.99714 0.0057742 0)
(0.997412 0.00588843 0)
(0.997723 0.00604435 0)
(0.997997 0.00621497 0)
(0.998297 0.00638638 0)
(0.998552 0.00655832 0)
(0.998818 0.00673361 0)
(0.999016 0.00691529 0)
(0.999221 0.00709461 0)
(0.999334 0.00727997 0)
(0.999444 0.00745985 0)
(0.999448 0.00762897 0)
(0.999461 0.0077786 0)
(0.999348 0.00791194 0)
(0.999239 0.00800572 0)
(0.998965 0.00803808 0)
(0.998675 0.00797117 0)
(0.998175 0.00777559 0)
(0.997622 0.0074077 0)
(0.996795 0.00684061 0)
(0.995876 0.00608501 0)
(0.994654 0.00522287 0)
(0.993339 0.00437818 0)
(0.991746 0.00367652 0)
(0.990103 0.00317903 0)
(0.988261 0.00286327 0)
(0.986451 0.00267645 0)
(0.984508 0.00256258 0)
(0.982642 0.00249513 0)
(0.980637 0.00245511 0)
(0.978704 0.00243606 0)
(0.976591 0.00242317 0)
(0.974532 0.00241131 0)
(0.972239 0.00239562 0)
(0.969999 0.00238064 0)
(0.967483 0.002359 0)
(0.965034 0.00233416 0)
(0.962267 0.00230466 0)
(0.959587 0.0022708 0)
(0.956558 0.00223108 0)
(0.953645 0.00219078 0)
(0.950349 0.00214594 0)
(0.947205 0.00210153 0)
(0.94365 0.00205419 0)
(0.940276 0.00200918 0)
(0.936464 0.00196272 0)
(0.932861 0.00191907 0)
(0.928802 0.00186988 0)
(0.924974 0.00182525 0)
(0.92067 0.00177727 0)
(0.916633 0.00173256 0)
(0.912104 0.00168276 0)
(0.907872 0.00163772 0)
(0.903127 0.0015886 0)
(0.898734 0.00154422 0)
(0.893775 0.00149706 0)
(0.88925 0.00145705 0)
(0.884064 0.00141557 0)
(0.879417 0.00137939 0)
(0.873999 0.00133917 0)
(0.869222 0.00130363 0)
(0.863609 0.00126182 0)
(0.858704 0.00122671 0)
(0.852942 0.0011859 0)
(0.847925 0.00115495 0)
(0.842 0.00111797 0)
(0.836926 0.0010909 0)
(0.830769 0.00105539 0)
(0.825735 0.00102629 0)
(0.819337 0.000990654 0)
(0.814369 0.000962436 0)
(0.807801 0.000926995 0)
(0.802858 0.000903388 0)
(0.796208 0.000868331 0)
(0.791262 0.00084755 0)
(0.784524 0.000809686 0)
(0.779727 0.000789828 0)
(0.772761 0.000753246 0)
(0.768289 0.000731421 0)
(0.761076 0.000696026 0)
(0.756888 0.000676813 0)
(0.749607 0.000636439 0)
(0.745638 0.000622559 0)
(0.738299 0.000580807 0)
(0.734752 0.000565891 0)
(0.72716 0.000526038 0)
(0.724292 0.000510634 0)
(0.716386 0.000469281 0)
(0.71422 0.000460823 0)
(0.706104 0.000419083 0)
(0.704566 0.000412694 0)
(0.69627 0.00036879 0)
(0.695565 0.000371527 0)
(0.68679 0.000355143 0)
(0.998225 0.00362628 0)
(0.997646 0.00443022 0)
(0.997215 0.00509484 0)
(0.996919 0.00555441 0)
(0.996917 0.00576461 0)
(0.997012 0.005824 0)
(0.99731 0.00584651 0)
(0.997582 0.0059062 0)
(0.997954 0.00602384 0)
(0.998235 0.00617885 0)
(0.998615 0.00634871 0)