/*--------------------------------*- C++ -*----------------------------------*\
| =========                 |                                                 |
| \\      /  F ield         | OpenFOAM: The Open Source CFD Toolbox           |
|  \\    /   O peration     | Version:  v2106                                 |
|   \\  /    A nd           | Website:  www.openfoam.com                      |
|    \\/     M anipulation  |                                                 |
\*---------------------------------------------------------------------------*/
FoamFile
{
    version     2.0;
    format      ascii;
    arch        "LSB;label=32;scalar=64";
    class       surfaceScalarField;
    location    "1.4";
    object      phi;
}
// * * * * * * * * * * * * * * * * * * * * * * * * * * * * * * * * * * * * * //

dimensions      [0 3 -1 0 0 0 0];

oriented        oriented;

internalField   nonuniform List<scalar> 
9440
(
3.88223e-06
8.85522e-09
3.87727e-06
-1.98733e-08
3.88101e-06
1.96179e-08
3.87851e-06
-4.71435e-09
3.8807e-06
2.91961e-09
3.87818e-06
-2.58393e-08
3.87991e-06
-2.21042e-09
3.8782e-06
-3.3456e-08
3.87987e-06
-7.07517e-09
3.87944e-06
-2.32772e-08
3.88132e-06
1.6804e-09
3.88111e-06
-1.7183e-08
3.88286e-06
5.53424e-09
3.88256e-06
-1.07038e-08
3.88413e-06
6.73452e-09
3.88409e-06
-7.49888e-09
3.88396e-06
6.37159e-09
3.88e-06
-2.2943e-09
3.86663e-06
2.00319e-08
3.29255e-08
3.84388e-06
4.18398e-06
1.07339e-08
4.18641e-06
-2.22996e-08
4.18488e-06
2.11463e-08
4.18779e-06
-7.62733e-09
4.18607e-06
4.63878e-09
4.18701e-06
-2.67721e-08
4.18637e-06
-1.57394e-09
4.18556e-06
-3.26467e-08
4.18594e-06
-7.45504e-09
4.18457e-06
-2.19078e-08
4.18653e-06
-2.79984e-10
4.18525e-06
-1.59034e-08
4.18777e-06
3.01193e-09
4.18685e-06
-9.77888e-09
4.1894e-06
4.18697e-09
4.18609e-06
-4.18845e-09
4.18421e-06
8.24826e-09
4.17347e-06
8.44537e-09
4.16772e-06
2.57787e-08
3.94437e-08
4.1612e-06
4.51842e-06
1.23785e-08
4.51989e-06
-2.37701e-08
4.52004e-06
2.09896e-08
4.52091e-06
-8.48986e-09
4.52189e-06
3.65464e-09
4.52016e-06
-2.50423e-08
4.52271e-06
-4.11951e-09
4.51896e-06
-2.88963e-08
4.52256e-06
-1.10537e-08
4.51805e-06
-1.73978e-08
4.52318e-06
-5.40965e-09
4.51862e-06
-1.13455e-08
4.52461e-06
-2.97964e-09
4.52165e-06
-6.81808e-09
4.52592e-06
-8.98692e-11
4.52129e-06
4.48156e-10
4.52232e-06
7.21384e-09
4.51494e-06
1.58248e-08
4.50716e-06
3.35638e-08
4.85993e-08
4.498e-06
4.88116e-06
1.21708e-08
4.88035e-06
-2.29647e-08
4.88329e-06
1.80507e-08
4.88171e-06
-6.91049e-09
4.88516e-06
2.02096e-10
4.88141e-06
-2.12917e-08
4.88571e-06
-8.41411e-09
4.88105e-06
-2.42364e-08
4.88498e-06
-1.49833e-08
4.88157e-06
-1.39893e-08
4.88602e-06
-9.86401e-09
4.88538e-06
-1.07033e-08
4.88801e-06
-5.6094e-09
4.88678e-06
-5.58728e-09
4.88831e-06
-1.62566e-09
4.88603e-06
2.7349e-09
4.88409e-06
9.14945e-09
4.8735e-06
2.64125e-08
4.86504e-06
4.20231e-08
5.39533e-08
4.85969e-06
5.27158e-06
1.12368e-08
5.26959e-06
-2.09787e-08
5.27426e-06
1.33903e-08
5.27143e-06
-4.08444e-09
5.2761e-06
-4.46724e-09
5.27163e-06
-1.68274e-08
5.27616e-06
-1.29394e-08
5.27238e-06
-2.04522e-08
5.27547e-06
-1.80818e-08
5.27573e-06
-1.42451e-08
5.2777e-06
-1.18366e-08
5.27779e-06
-1.0796e-08
5.2795e-06
-7.31357e-09
5.27919e-06
-5.27835e-09
5.27927e-06
-1.70637e-09
5.27627e-06
5.73163e-09
5.26567e-06
1.97568e-08
5.25577e-06
3.63095e-08
5.25161e-06
4.61808e-08
5.63735e-08
5.24919e-06
5.69265e-06
1.0051e-08
5.6898e-06
-1.81345e-08
5.69573e-06
7.46532e-09
5.69245e-06
-8.11798e-10
5.69722e-06
-9.23672e-09
5.69346e-06
-1.30636e-08
5.69707e-06
-1.65475e-08
5.69641e-06
-1.97995e-08
5.69768e-06
-1.93502e-08
5.69861e-06
-1.51729e-08
5.70028e-06
-1.35025e-08
5.70083e-06
-1.13498e-08
5.70177e-06
-8.25385e-09
5.70135e-06
-4.86216e-09
5.69826e-06
1.39011e-09
5.68752e-06
1.64697e-08
5.67704e-06
3.02345e-08
5.67313e-06
4.02186e-08
5.67042e-06
4.8892e-08
5.73265e-08
5.66947e-06
6.14718e-06
8.73963e-09
6.14389e-06
-1.48424e-08
6.1501e-06
1.25332e-09
6.14807e-06
1.21728e-09
6.15094e-06
-1.21e-08
6.15033e-06
-1.24577e-08
6.15068e-06
-1.68956e-08
6.1525e-06
-2.16222e-08
6.15382e-06
-2.06701e-08
6.15514e-06
-1.64888e-08
6.15627e-06
-1.4633e-08
6.15717e-06
-1.22534e-08
6.15645e-06
-7.53499e-09
6.15315e-06
-1.56374e-09
6.14197e-06
1.25729e-08
6.13197e-06
2.64697e-08
6.12792e-06
3.42805e-08
6.12549e-06
4.26582e-08
6.12387e-06
5.05044e-08
5.79796e-08
6.12322e-06
6.63795e-06
7.34933e-09
6.63462e-06
-1.1515e-08
6.63984e-06
-3.9643e-09
6.64029e-06
7.68035e-10
6.64034e-06
-1.21472e-08
6.64252e-06
-1.46434e-08
6.64387e-06
-1.82377e-08
6.64497e-06
-2.27278e-08
6.64629e-06
-2.19904e-08
6.64786e-06
-1.80541e-08
6.64847e-06
-1.52446e-08
6.64801e-06
-1.17979e-08
6.64408e-06
-3.6003e-09
6.63303e-06
9.48636e-09
6.62338e-06
2.2221e-08
6.61941e-06
3.04382e-08
6.61657e-06
3.71229e-08
6.615e-06
4.42229e-08
6.61365e-06
5.18605e-08
5.8675e-08
6.61295e-06
7.16784e-06
5.93663e-09
7.1649e-06
-8.56844e-09
7.1668e-06
-5.86652e-09
7.17101e-06
-3.4427e-09
7.17101e-06
-1.21464e-08
7.17335e-06
-1.6984e-08
7.17588e-06
-2.07653e-08
7.17728e-06
-2.41277e-08
7.17794e-06
-2.26572e-08
7.17926e-06
-1.93696e-08
7.17947e-06
-1.54521e-08
7.17597e-06
-8.29729e-09
7.16499e-06
7.37846e-09
7.1542e-06
2.02716e-08
7.14978e-06
2.66394e-08
7.14727e-06
3.29474e-08
7.14529e-06
3.91088e-08
7.14349e-06
4.60222e-08
7.14237e-06
5.29778e-08
5.90852e-08
7.14196e-06
7.74006e-06
4.47841e-09
7.73721e-06
-5.72129e-09
7.73853e-06
-7.18039e-09
7.74206e-06
-6.97359e-09
7.746e-06
-1.60851e-08
7.74703e-06
-1.80154e-08
7.74939e-06
-2.31302e-08
7.75111e-06
-2.58407e-08
7.75204e-06
-2.35912e-08
7.7517e-06
-1.90289e-08
7.74684e-06
-1.05863e-08
7.73504e-06
3.50205e-09
7.72602e-06
1.63966e-08
7.72262e-06
2.36689e-08
7.72018e-06
2.9079e-08
7.7182e-06
3.49245e-08
7.716e-06
4.13103e-08
7.71437e-06
4.76559e-08
7.71339e-06
5.39537e-08
5.91508e-08
7.71333e-06
8.35794e-06
2.99748e-09
8.35519e-06
-2.97485e-09
8.35647e-06
-8.45718e-09
8.35852e-06
-9.01961e-09
8.36454e-06
-2.21095e-08
8.36805e-06
-2.15207e-08
8.36925e-06
-2.43369e-08
8.36989e-06
-2.64726e-08
8.36941e-06
-2.31118e-08
8.36363e-06
-1.32547e-08
8.35282e-06
2.25765e-10
8.34422e-06
1.21044e-08
8.34064e-06
1.99727e-08
8.33876e-06
2.55519e-08
8.3367e-06
3.11408e-08
8.33444e-06
3.71815e-08
8.33251e-06
4.32422e-08
8.33101e-06
4.91561e-08
8.33025e-06
5.47123e-08
5.90582e-08
8.33034e-06
9.02511e-06
1.53746e-09
9.02303e-06
-8.98898e-10
9.02416e-06
-9.59046e-09
9.02602e-06
-1.08741e-08
9.03108e-06
-2.71682e-08
9.03676e-06
-2.72027e-08
9.03823e-06
-2.58073e-08
9.03702e-06
-2.52643e-08
9.03101e-06
-1.71003e-08
9.0213e-06
-3.54102e-09
9.01258e-06
8.94353e-09
9.0085e-06
1.61832e-08
9.00642e-06
2.20498e-08
9.00438e-06
2.75992e-08
9.00223e-06
3.32865e-08
9.00017e-06
3.92395e-08
8.99836e-06
4.5051e-08
8.99707e-06
5.04541e-08
8.99667e-06
5.51111e-08
5.90611e-08
8.99666e-06
9.74551e-06
1.2842e-10
9.74456e-06
5.16969e-11
9.7458e-06
-1.08326e-08
9.74761e-06
-1.26851e-08
9.75041e-06
-2.99654e-08
9.75656e-06
-3.33508e-08
9.75761e-06
-2.68621e-08
9.75174e-06
-1.93925e-08
9.74127e-06
-6.62398e-09
9.733e-06
4.72049e-09
9.72985e-06
1.20991e-08
9.7278e-06
1.82275e-08
9.7254e-06
2.44592e-08
9.72326e-06
2.97354e-08
9.72116e-06
3.53884e-08
9.71919e-06
4.12039e-08
9.71758e-06
4.66687e-08
9.71667e-06
5.13614e-08
9.71625e-06
5.55242e-08
5.89621e-08
9.71635e-06
1.05233e-05
-1.12922e-09
1.05244e-05
-1.03979e-09
1.05248e-05
-1.12071e-08
1.05287e-05
-1.65325e-08
1.05271e-05
-2.84388e-08
1.05289e-05
-3.51384e-08
1.05268e-05
-2.47409e-08
1.05215e-05
-1.41032e-08
1.05138e-05
1.04113e-09
1.05088e-05
9.72757e-09
1.05062e-05
1.47037e-08
1.05042e-05
2.02539e-08
1.05019e-05
2.67091e-08
1.04997e-05
3.19436e-08
1.04977e-05
3.74321e-08
1.04959e-05
4.30309e-08
1.04946e-05
4.79564e-08
1.04938e-05
5.21543e-08
1.04935e-05
5.58466e-08
5.87219e-08
1.04937e-05
1.13634e-05
-2.32942e-09
1.13657e-05
-3.36455e-09
1.13674e-05
-1.28665e-08
1.13708e-05
-1.99925e-08
1.13682e-05
-2.58259e-08
1.13602e-05
-2.71188e-08
1.13555e-05
-2.00621e-08
1.13522e-05
-1.07604e-08
1.13508e-05
2.44583e-09
1.13482e-05
1.23191e-08
1.13452e-05
1.76978e-08
1.13428e-05
2.26682e-08
1.13406e-05
2.88787e-08
1.13384e-05
3.41132e-08
1.13365e-05
3.93644e-08
1.13349e-05
4.46267e-08
1.13338e-05
4.90179e-08
1.13331e-05
5.28627e-08
1.1333e-05
5.60017e-08
5.83382e-08
1.13333e-05
1.22706e-05
-3.55821e-09
1.22744e-05
-7.16842e-09
1.22758e-05
-1.42971e-08
1.22768e-05
-2.1032e-08
1.22755e-05
-2.45167e-08
1.22684e-05
-2.00264e-08
1.22608e-05
-1.24224e-08
1.22567e-05
-6.65062e-09
1.22552e-05
3.941e-09
1.22538e-05
1.37328e-08
1.22512e-05
2.02925e-08
1.22486e-05
2.52492e-08
1.22464e-05
3.1062e-08
1.22443e-05
3.62029e-08
1.22425e-05
4.11673e-08
1.22412e-05
4.59364e-08
1.22403e-05
4.99641e-08
1.22397e-05
5.34009e-08
1.22397e-05
5.59934e-08
5.78208e-08
1.22403e-05
1.32502e-05
-4.83079e-09
1.32532e-05
-1.01458e-08
1.3256e-05
-1.7143e-08
1.32542e-05
-1.91915e-08
1.32514e-05
-2.17704e-08
1.32469e-05
-1.54747e-08
1.32406e-05
-6.17406e-09
1.32355e-05
-1.51002e-09
1.3233e-05
6.40887e-09
1.32316e-05
1.51563e-08
1.32295e-05
2.23842e-08
1.32272e-05
2.75991e-08
1.3225e-05
3.32581e-08
1.3223e-05
3.82169e-08
1.32213e-05
4.2867e-08
1.32202e-05
4.7022e-08
1.32194e-05
5.07731e-08
1.3219e-05
5.37515e-08
1.32192e-05
5.58345e-08
5.7183e-08
1.32198e-05
1.43079e-05
-6.01359e-09
1.43097e-05
-1.19559e-08
1.43131e-05
-2.05039e-08
1.43113e-05
-1.74486e-08
1.43052e-05
-1.56195e-08
1.43013e-05
-1.1545e-08
1.42975e-05
-2.41248e-09
1.42931e-05
2.87321e-09
1.42899e-05
9.62854e-09
1.4288e-05
1.70837e-08
1.4286e-05
2.43357e-08
1.4284e-05
2.96642e-08
1.42819e-05
3.53262e-08
1.428e-05
4.00906e-08
1.42785e-05
4.4382e-08
1.42776e-05
4.79722e-08
1.4277e-05
5.1349e-08
1.42768e-05
5.39038e-08
1.42771e-05
5.55322e-08
5.64349e-08
1.42779e-05
1.54499e-05
-6.87607e-09
1.54507e-05
-1.28088e-08
1.54522e-05
-2.1948e-08
1.54521e-05
-1.74247e-08
1.5446e-05
-9.53487e-09
1.5441e-05
-6.45276e-09
1.54379e-05
6.58683e-10
1.54348e-05
5.97351e-09
1.54316e-05
1.2822e-08
1.54293e-05
1.94077e-08
1.54273e-05
2.63368e-08
1.54253e-05
3.15997e-08
1.54235e-05
3.71556e-08
1.54219e-05
4.17389e-08
1.54205e-05
4.57111e-08
1.54197e-05
4.87834e-08
1.54194e-05
5.1711e-08
1.54194e-05
5.38572e-08
1.54198e-05
5.50841e-08
5.55837e-08
1.54207e-05
1.66829e-05
-7.30807e-09
1.66836e-05
-1.35574e-08
1.66816e-05
-1.99075e-08
1.66811e-05
-1.69654e-08
1.66781e-05
-6.4667e-09
1.66734e-05
-1.77333e-09
1.66701e-05
3.99663e-09
1.66673e-05
8.69572e-09
1.66645e-05
1.56315e-08
1.66621e-05
2.18138e-08
1.666e-05
2.84087e-08
1.66582e-05
3.34606e-08
1.66565e-05
3.87972e-08
1.66552e-05
4.31194e-08
1.66541e-05
4.67999e-08
1.66534e-05
4.94057e-08
1.66533e-05
5.18712e-08
1.66535e-05
5.36056e-08
1.66542e-05
5.44737e-08
5.46165e-08
1.66551e-05
1.80144e-05
-7.3375e-09
1.80139e-05
-1.3042e-08
1.8011e-05
-1.6998e-08
1.80094e-05
-1.53981e-08
1.80077e-05
-4.7787e-09
1.80046e-05
1.3658e-09
1.80014e-05
7.18403e-09
1.79986e-05
1.15001e-08
1.7996e-05
1.82575e-08
1.79937e-05
2.41018e-08
1.79916e-05
3.0481e-08
1.79899e-05
3.52192e-08
1.79884e-05
4.02653e-08
1.79873e-05
4.42587e-08
1.79865e-05
4.75846e-08
1.79861e-05
4.98188e-08
1.79861e-05
5.183e-08
1.79866e-05
5.31555e-08
1.79873e-05
5.36881e-08
5.35216e-08
1.79884e-05
1.94523e-05
-6.98127e-09
1.94509e-05
-1.16241e-08
1.94478e-05
-1.39105e-08
1.94456e-05
-1.31998e-08
1.94441e-05
-3.27607e-09
1.94418e-05
3.68582e-09
1.94392e-05
9.79033e-09
1.94366e-05
1.41156e-08
1.94341e-05
2.07851e-08
1.94319e-05
2.62638e-08
1.94299e-05
3.24263e-08
1.94283e-05
3.6834e-08
1.94271e-05
4.15207e-08
1.94262e-05
4.51762e-08
1.94257e-05
4.80481e-08
1.94255e-05
5.00354e-08
1.94257e-05
5.15996e-08
1.94263e-05
5.25354e-08
1.94273e-05
5.27431e-08
5.2317e-08
1.94285e-05
2.10051e-05
-6.31985e-09
2.10035e-05
-1.00075e-08
2.10002e-05
-1.05847e-08
2.09978e-05
-1.07543e-08
2.09962e-05
-1.76133e-09
2.09942e-05
5.7437e-09
2.09918e-05
1.21293e-08
2.09896e-05
1.6399e-08
2.09872e-05
2.31153e-08
2.09852e-05
2.8336e-08
2.09834e-05
3.42216e-08
2.09819e-05
3.83123e-08
2.09809e-05
4.25428e-08
2.09802e-05
4.5804e-08
2.09801e-05
4.8221e-08
2.09801e-05
4.99926e-08
2.09806e-05
5.11458e-08
2.09814e-05
5.17193e-08
2.09825e-05
5.16251e-08
5.09763e-08
2.09838e-05
2.2682e-05
-5.3847e-09
2.26802e-05
-8.18536e-09
2.2677e-05
-7.37717e-09
2.26742e-05
-8.01604e-09
2.26728e-05
-3.28485e-10
2.26709e-05
7.61434e-09
2.26686e-05
1.44063e-08
2.26665e-05
1.84936e-08
2.26646e-05
2.5062e-08
2.26628e-05
3.0173e-08
2.26612e-05
3.57783e-08
2.26599e-05
3.95811e-08
2.26591e-05
4.33357e-08
2.26589e-05
4.60862e-08
2.26589e-05
4.82126e-08
2.26592e-05
4.96836e-08
2.26598e-05
5.04812e-08
2.26608e-05
5.07255e-08
2.26621e-05
5.0354e-08
4.95041e-08
2.26636e-05
2.44929e-05
-4.30667e-09
2.44913e-05
-6.63142e-09
2.44882e-05
-4.3069e-09
2.44851e-05
-4.91245e-09
2.44834e-05
1.38464e-09
2.44819e-05
9.17558e-09
2.44797e-05
1.65396e-08
2.44776e-05
2.05819e-08
2.4476e-05
2.66951e-08
2.44745e-05
3.16865e-08
2.44732e-05
3.70639e-08
2.44722e-05
4.058e-08
2.44717e-05
4.3827e-08
2.44717e-05
4.6089e-08
2.4472e-05
4.79406e-08
2.44726e-05
4.90856e-08
2.44735e-05
4.95598e-08
2.44747e-05
4.95207e-08
2.44762e-05
4.89087e-08
4.78837e-08
2.44778e-05
2.64485e-05
-3.1936e-09
2.64468e-05
-4.96187e-09
2.64442e-05
-1.70786e-09
2.64409e-05
-1.66692e-09
2.64389e-05
3.4099e-09
2.64376e-05
1.05031e-08
2.64358e-05
1.83504e-08
2.64338e-05
2.2586e-08
2.64323e-05
2.81976e-08
2.64311e-05
3.28265e-08
2.64302e-05
3.79764e-08
2.64296e-05
4.1231e-08
2.64294e-05
4.39625e-08
2.64296e-05
4.58751e-08
2.64302e-05
4.73708e-08
2.64311e-05
4.81926e-08
2.64323e-05
4.8403e-08
2.64337e-05
4.81016e-08
2.64353e-05
4.73116e-08
4.61256e-08
2.6437e-05
2.85603e-05
-2.12911e-09
2.85587e-05
-3.36854e-09
2.85565e-05
4.78585e-10
2.85533e-05
1.48953e-09
2.85509e-05
5.86261e-09
2.85495e-05
1.18871e-08
2.85481e-05
1.97802e-08
2.85463e-05
2.43119e-08
2.85451e-05
2.94723e-08
2.85442e-05
3.36478e-08
2.85438e-05
3.84242e-08
2.85436e-05
4.14404e-08
2.85437e-05
4.38517e-08
2.85442e-05
4.54068e-08
2.8545e-05
4.65517e-08
2.85461e-05
4.70289e-08
2.85475e-05
4.70156e-08
2.85492e-05
4.64682e-08
2.85509e-05
4.554e-08
4.42153e-08
2.85528e-05
3.08407e-05
-1.17429e-09
3.0839e-05
-1.65732e-09
3.08371e-05
2.39668e-09
3.08343e-05
4.26271e-09
3.08318e-05
8.36032e-09
3.08304e-05
1.33395e-08
3.08293e-05
2.08554e-08
3.08279e-05
2.56695e-08
3.08269e-05
3.05081e-08
3.08263e-05
3.42093e-08
3.08263e-05
3.84962e-08
3.08265e-05
4.11852e-08
3.0827e-05
4.34056e-08
3.08278e-05
4.46099e-08
3.08289e-05
4.54461e-08
3.08303e-05
4.56082e-08
3.08319e-05
4.53851e-08
3.08337e-05
4.46436e-08
3.08357e-05
4.35921e-08
4.21726e-08
3.08377e-05
3.33033e-05
-3.80834e-10
3.33017e-05
-1.39766e-11
3.32999e-05
4.11366e-09
3.32975e-05
6.66681e-09
3.32951e-05
1.07566e-08
3.32936e-05
1.48612e-08
3.32928e-05
2.17177e-08
3.32919e-05
2.65469e-08
3.32912e-05
3.11845e-08
3.32909e-05
3.44745e-08
3.32912e-05
3.8201e-08
3.32919e-05
4.05245e-08
3.32928e-05
4.25378e-08
3.32939e-05
4.34583e-08
3.32953e-05
4.40273e-08
3.3297e-05
4.39167e-08
3.32989e-05
4.35084e-08
3.33009e-05
4.26062e-08
3.33031e-05
4.14681e-08
3.99824e-08
3.33053e-05
3.59624e-05
3.23026e-10
3.59609e-05
1.53191e-09
3.59594e-05
5.62214e-09
3.59574e-05
8.64644e-09
3.59553e-05
1.28313e-08
3.59538e-05
1.63295e-08
3.59532e-05
2.23875e-08
3.59528e-05
2.69502e-08
3.59526e-05
3.13602e-08
3.59527e-05
3.43712e-08
3.59533e-05
3.75754e-08
3.59543e-05
3.9524e-08
3.59556e-05
4.12735e-08
3.59571e-05
4.19556e-08
3.59588e-05
4.23048e-08
3.59608e-05
4.19529e-08
3.59629e-05
4.13981e-08
3.59651e-05
4.0353e-08
3.59675e-05
3.91649e-08
3.76369e-08
3.59698e-05
3.88339e-05
8.77417e-10
3.88325e-05
2.89574e-09
3.88312e-05
7.00799e-09
3.88297e-05
1.01371e-08
3.8828e-05
1.45246e-08
3.88267e-05
1.76047e-08
3.88263e-05
2.28226e-08
3.88262e-05
2.69723e-08
3.88265e-05
3.10686e-08
3.88271e-05
3.37955e-08
3.88282e-05
3.65286e-08
3.88296e-05
3.81185e-08
3.88312e-05
3.95957e-08
3.88331e-05
4.00496e-08
3.88352e-05
4.02481e-08
3.88374e-05
3.97183e-08
3.88398e-05
3.90544e-08
3.88422e-05
3.79215e-08
3.88447e-05
3.66969e-08
3.5171e-08
3.88471e-05
4.19345e-05
1.42331e-09
4.19335e-05
3.88055e-09
4.19322e-05
8.27774e-09
4.19311e-05
1.13043e-08
4.193e-05
1.56033e-08
4.19291e-05
1.84724e-08
4.1929e-05
2.29898e-08
4.19293e-05
2.65863e-08
4.19301e-05
3.02969e-08
4.19312e-05
3.27154e-08
4.19327e-05
3.49956e-08
4.19345e-05
3.6349e-08
4.19366e-05
3.75128e-08
4.19388e-05
3.77876e-08
4.19413e-05
3.7832e-08
4.19437e-05
3.72234e-08
4.19463e-05
3.64612e-08
4.1949e-05
3.53064e-08
4.19516e-05
3.40583e-08
3.25676e-08
4.19542e-05
4.52828e-05
1.81988e-09
4.52819e-05
4.77176e-09
4.52809e-05
9.23383e-09
4.52802e-05
1.20496e-08
4.52796e-05
1.61618e-08
4.52792e-05
1.88341e-08
4.52796e-05
2.2677e-08
4.52805e-05
2.56881e-08
4.52817e-05
2.90623e-08
4.52833e-05
3.1128e-08
4.52852e-05
3.31005e-08
4.52873e-05
3.41906e-08
4.52898e-05
3.50479e-08
4.52924e-05
3.51871e-08
4.52952e-05
3.50647e-08
4.5298e-05
3.44229e-08
4.53008e-05
3.36038e-08
4.53037e-05
3.24597e-08
4.53065e-05
3.12391e-08
2.98002e-08
4.53093e-05
4.88983e-05
2.12769e-09
4.88977e-05
5.40619e-09
4.88971e-05
9.80351e-09
4.88967e-05
1.24798e-08
4.88967e-05
1.60884e-08
4.88969e-05
1.86241e-08
4.88977e-05
2.19515e-08
4.8899e-05
2.43164e-08
4.89008e-05
2.72846e-08
4.8903e-05
2.8998e-08
4.89053e-05
3.0713e-08
4.8908e-05
3.15686e-08
4.89108e-05
3.21812e-08
4.89138e-05
3.22291e-08
4.89169e-05
3.19836e-08
4.892e-05
3.13314e-08
4.8923e-05
3.052e-08
4.89261e-05
2.9409e-08
4.89291e-05
2.82662e-08
2.68979e-08
4.8932e-05
5.28025e-05
2.38206e-09
5.28023e-05
5.59246e-09
5.28022e-05
9.90177e-09
5.28021e-05
1.25369e-08
5.28026e-05
1.55706e-08
5.28034e-05
1.78067e-08
5.28047e-05
2.06746e-08
5.28067e-05
2.23901e-08
5.2809e-05
2.49777e-08
5.28115e-05
2.64097e-08
5.28145e-05
2.77923e-08
5.28175e-05
2.85311e-08
5.28208e-05
2.89205e-08
5.2824e-05
2.89462e-08
5.28274e-05
2.86111e-08
5.28308e-05
2.79754e-08
5.28341e-05
2.71947e-08
5.28374e-05
2.61477e-08
5.28405e-05
2.51051e-08
2.38354e-08
5.28436e-05
5.70185e-05
2.43377e-09
5.70183e-05
5.72007e-09
5.70185e-05
9.75962e-09
5.70191e-05
1.18838e-08
5.70203e-05
1.43932e-08
5.7022e-05
1.61583e-08
5.70238e-05
1.88189e-08
5.70262e-05
1.99947e-08
5.7029e-05
2.21926e-08
5.7032e-05
2.3387e-08
5.70354e-05
2.44239e-08
5.70389e-05
2.5037e-08
5.70425e-05
2.52657e-08
5.70462e-05
2.52514e-08
5.70499e-05
2.49183e-08
5.70536e-05
2.4303e-08
5.70572e-05
2.3604e-08
5.70607e-05
2.26495e-08
5.70641e-05
2.17418e-08
2.06011e-08
5.70673e-05
6.1571e-05
2.32199e-09
6.15713e-05
5.4794e-09
6.1572e-05
8.9895e-09
6.15731e-05
1.08011e-08
6.15748e-05
1.27395e-08
6.15769e-05
1.3997e-08
6.15795e-05
1.62662e-08
6.15825e-05
1.7008e-08
6.15858e-05
1.88363e-08
6.15894e-05
1.98141e-08
6.15931e-05
2.06923e-08
6.15971e-05
2.11068e-08
6.16011e-05
2.12922e-08
6.16051e-05
2.11937e-08
6.16091e-05
2.08883e-08
6.16131e-05
2.03319e-08
6.1617e-05
1.96952e-08
6.16208e-05
1.88972e-08
6.16244e-05
1.81288e-08
1.72419e-08
6.16277e-05
6.64871e-05
1.99971e-09
6.6488e-05
4.55728e-09
6.64896e-05
7.45823e-09
6.64913e-05
9.08722e-09
6.64934e-05
1.06762e-08
6.64958e-05
1.15204e-08
6.64989e-05
1.32201e-08
6.65023e-05
1.36263e-08
6.6506e-05
1.50594e-08
6.65101e-05
1.57086e-08
6.65144e-05
1.64485e-08
6.65188e-05
1.67172e-08
6.65232e-05
1.68454e-08
6.65276e-05
1.68003e-08
6.6532e-05
1.6516e-08
6.65362e-05
1.61215e-08
6.65403e-05
1.55696e-08
6.65443e-05
1.49602e-08
6.65481e-05
1.43054e-08
1.35731e-08
6.65518e-05
7.17954e-05
1.71448e-09
7.17966e-05
3.40151e-09
7.17986e-05
5.46033e-09
7.18011e-05
6.62641e-09
7.18039e-05
7.83701e-09
7.18071e-05
8.3274e-09
7.18106e-05
9.67304e-09
7.18145e-05
9.74301e-09
7.18188e-05
1.08114e-08
7.18232e-05
1.12448e-08
7.1828e-05
1.17212e-08
7.18327e-05
1.19611e-08
7.18375e-05
1.20272e-08
7.18423e-05
1.20335e-08
7.1847e-05
1.18353e-08
7.18516e-05
1.15528e-08
7.18559e-05
1.11894e-08
7.18602e-05
1.07322e-08
7.18642e-05
1.03042e-08
9.76833e-09
7.1868e-05
7.75282e-05
7.75298e-05
7.75324e-05
7.75354e-05
7.75388e-05
7.75425e-05
7.75467e-05
7.7551e-05
7.75558e-05
7.75608e-05
7.7566e-05
7.75713e-05
7.75765e-05
7.75818e-05
7.75869e-05
7.75919e-05
7.75967e-05
7.76013e-05
7.76057e-05
7.76099e-05
3.7763e-06
6.75853e-08
3.68158e-06
9.47185e-08
3.5814e-06
1.00182e-07
3.48294e-06
9.84608e-08
3.38483e-06
9.81111e-08
3.28551e-06
9.93203e-08
3.18431e-06
1.01193e-07
3.08122e-06
1.03097e-07
2.97635e-06
1.04871e-07
2.86973e-06
1.06613e-07
2.76132e-06
1.08409e-07
2.65107e-06
1.10252e-07
2.53894e-06
1.12136e-07
2.4249e-06
1.14039e-07
2.30901e-06
1.15883e-07
2.19147e-06
1.17542e-07
2.07241e-06
1.19067e-07
1.95201e-06
1.20396e-07
1.83059e-06
1.21419e-07
1.70877e-06
1.21815e-07
1.58744e-06
1.21334e-07
1.46786e-06
1.19584e-07
1.35222e-06
1.15634e-07
1.24304e-06
1.09184e-07
1.14357e-06
9.94707e-08
1.05731e-06
8.62629e-08
9.87317e-07
6.99885e-08
9.34837e-07
5.24794e-08
8.97928e-07
3.69088e-08
8.72513e-07
2.54155e-08
8.54677e-07
1.78361e-08
8.41593e-07
1.30839e-08
8.31202e-07
1.03903e-08
8.22237e-07
8.96536e-09
8.13894e-07
8.34281e-09
8.05534e-07
8.36069e-09
7.96762e-07
8.77119e-09
7.87453e-07
9.30932e-09
7.77589e-07
9.86429e-09
7.67274e-07
1.03151e-08
7.56598e-07
1.06756e-08
7.45697e-07
1.09011e-08
7.34669e-07
1.10279e-08
7.23616e-07
1.1053e-08
7.1258e-07
1.10362e-08
7.01645e-07
1.09346e-08
6.90898e-07
1.07469e-08
6.8033e-07
1.05686e-08
6.69962e-07
1.03679e-08
6.59823e-07
1.01392e-08
6.4992e-07
9.90246e-09
6.40246e-07
9.67437e-09
6.30754e-07
9.49188e-09
6.21504e-07
9.24986e-09
6.12471e-07
9.03332e-09
6.03685e-07
8.78556e-09
5.95125e-07
8.55978e-09
5.86843e-07
8.28237e-09
5.78802e-07
8.04081e-09
5.71001e-07
7.80154e-09
5.63398e-07
7.6022e-09
5.55981e-07
7.41792e-09
5.48736e-07
7.24469e-09
5.41655e-07
7.08132e-09
5.34747e-07
6.90764e-09
5.28034e-07
6.71237e-09
5.21515e-07
6.51943e-09
5.15181e-07
6.33406e-09
5.08982e-07
6.19929e-09
5.02919e-07
6.0632e-09
4.96946e-07
5.97293e-09
4.91144e-07
5.80159e-09
4.85404e-07
5.74017e-09
4.79862e-07
5.54162e-09
4.74445e-07
5.41742e-09
4.69151e-07
5.2941e-09
4.63995e-07
5.15526e-09
4.58931e-07
5.06473e-09
4.53961e-07
4.96966e-09
4.49187e-07
4.77436e-09
4.44434e-07
4.75263e-09
4.39926e-07
4.50795e-09
4.35476e-07
4.45023e-09
4.31173e-07
4.30285e-09
4.2709e-07
4.08299e-09
4.23053e-07
4.03656e-09
4.19173e-07
3.88035e-09
4.15569e-07
3.60421e-09
4.119e-07
3.66865e-09
4.08574e-07
3.32646e-09
4.05365e-07
3.20835e-09
4.02233e-07
3.13278e-09
3.99312e-07
2.92066e-09
3.96595e-07
2.71737e-09
3.93801e-07
2.79366e-09
3.9147e-07
2.33074e-09
3.89016e-07
2.45405e-09
3.86632e-07
2.38428e-09
3.84311e-07
2.32039e-09
2.65955e-09
4.16626e-06
6.25311e-08
4.16971e-06
9.12698e-08
4.16393e-06
1.05954e-07
4.15388e-06
1.08512e-07
4.14302e-06
1.08974e-07
4.13102e-06
1.11318e-07
4.1167e-06
1.1551e-07
4.09949e-06
1.20313e-07
4.07929e-06
1.25073e-07
4.05609e-06
1.29814e-07
4.02978e-06
1.34716e-07
4.0002e-06
1.39835e-07
3.96715e-06
1.45181e-07
3.93047e-06
1.50723e-07
3.88996e-06
1.56387e-07
3.84552e-06
1.61981e-07
3.79702e-06
1.67574e-07
3.74433e-06
1.73078e-07
3.6874e-06
1.78357e-07
3.62624e-06
1.82975e-07
3.56107e-06
1.86502e-07
3.49229e-06
1.88368e-07
3.42076e-06
1.87161e-07
3.34756e-06
1.82384e-07
3.27412e-06
1.72907e-07
3.20224e-06
1.58146e-07
3.13394e-06
1.38285e-07
3.07078e-06
1.15645e-07
3.01365e-06
9.40319e-08
2.96218e-06
7.68946e-08
2.91481e-06
6.51986e-08
2.87014e-06
5.77543e-08
2.82726e-06
5.3271e-08
2.7855e-06
5.07263e-08
2.74469e-06
4.91566e-08
2.70455e-06
4.85003e-08
2.66482e-06
4.84957e-08
2.62539e-06
4.87383e-08
2.58622e-06
4.90333e-08
2.54733e-06
4.92129e-08
2.50871e-06
4.92977e-08
2.47046e-06
4.91434e-08
2.43262e-06
4.88716e-08
2.3952e-06
4.84719e-08
2.35826e-06
4.79787e-08
2.32191e-06
4.72786e-08
2.28622e-06
4.64405e-08
2.25119e-06
4.56012e-08
2.21686e-06
4.46912e-08
2.18331e-06
4.36909e-08
2.15052e-06
4.26958e-08
2.1185e-06
4.16954e-08
2.08722e-06
4.0769e-08
2.05673e-06
3.97374e-08
2.02699e-06
3.87743e-08
1.99803e-06
3.77507e-08
1.96982e-06
3.67693e-08
1.94241e-06
3.56863e-08
1.91576e-06
3.46979e-08
1.88987e-06
3.36887e-08
1.86466e-06
3.28104e-08
1.84013e-06
3.19514e-08
1.81619e-06
3.11868e-08
1.79284e-06
3.04291e-08
1.77003e-06
2.97125e-08
1.74783e-06
2.89143e-08
1.72618e-06
2.81689e-08
1.7051e-06
2.74152e-08
1.68447e-06
2.68298e-08
1.66432e-06
2.62108e-08
1.64455e-06
2.57491e-08
1.62523e-06
2.51209e-08
1.60623e-06
2.47383e-08
1.58774e-06
2.40264e-08
1.56962e-06
2.35379e-08
1.55196e-06
2.29559e-08
1.53465e-06
2.24716e-08
1.51773e-06
2.19795e-08
1.50113e-06
2.15665e-08
1.48503e-06
2.08778e-08
1.46918e-06
2.06073e-08
1.45391e-06
1.97765e-08
1.4389e-06
1.94577e-08
1.42445e-06
1.87497e-08
1.4104e-06
1.81395e-08
1.39683e-06
1.76032e-08
1.38362e-06
1.7092e-08
1.3711e-06
1.612e-08
1.35877e-06
1.60016e-08
1.34728e-06
1.48162e-08
1.33604e-06
1.44464e-08
1.32547e-06
1.3704e-08
1.31518e-06
1.3212e-08
1.3057e-06
1.21941e-08
1.29633e-06
1.21622e-08
1.28796e-06
1.07062e-08
1.27939e-06
1.1026e-08
1.27166e-06
1.0113e-08
1.26393e-06
1.00472e-08
1.04599e-08
4.49842e-06
6.21148e-08
4.50403e-06
8.56551e-08
4.50744e-06
1.02551e-07
4.50692e-06
1.09032e-07
4.50538e-06
1.10512e-07
4.50469e-06
1.12003e-07
4.50461e-06
1.1559e-07
4.5044e-06
1.20525e-07
4.50362e-06
1.25859e-07
4.50213e-06
1.31301e-07
4.49989e-06
1.36952e-07
4.49681e-06
1.4292e-07
4.49275e-06
1.4924e-07
4.48757e-06
1.55903e-07
4.48111e-06
1.62845e-07
4.47322e-06
1.69868e-07
4.4638e-06
1.77001e-07
4.45267e-06
1.84204e-07
4.43972e-06
1.91305e-07
4.4248e-06
1.97895e-07
4.40787e-06
2.03434e-07
4.38894e-06
2.07303e-07
4.36788e-06
2.08221e-07
4.34495e-06
2.05306e-07
4.32025e-06
1.97611e-07
4.2941e-06
1.84299e-07
4.26689e-06
1.65493e-07
4.23937e-06
1.43168e-07
4.21251e-06
1.20887e-07
4.18696e-06
1.02448e-07
4.16244e-06
8.97201e-08
4.13829e-06
8.18996e-08
4.11407e-06
7.74888e-08
4.08955e-06
7.52463e-08
4.0646e-06
7.41086e-08
4.03921e-06
7.38898e-08
4.0133e-06
7.44052e-08
3.98681e-06
7.52309e-08
3.95968e-06
7.61617e-08
3.93193e-06
7.6966e-08
3.90353e-06
7.7691e-08
3.87454e-06
7.81368e-08
3.84497e-06
7.84379e-08
3.81485e-06
7.85997e-08
3.78416e-06
7.86649e-08
3.75303e-06
7.84084e-08
3.72147e-06
7.79984e-08
3.68954e-06
7.75343e-08
3.65726e-06
7.6974e-08
3.62472e-06
7.62306e-08
3.59194e-06
7.54738e-08
3.55895e-06
7.46803e-08
3.52578e-06
7.39398e-08
3.4925e-06
7.30177e-08
3.4591e-06
7.21734e-08
3.42568e-06
7.11769e-08
3.39223e-06
7.02187e-08
3.3589e-06
6.90182e-08
3.32564e-06
6.7957e-08
3.29254e-06
6.67816e-08
3.25956e-06
6.57946e-08
3.22678e-06
6.47363e-08
3.19412e-06
6.38373e-08
3.16172e-06
6.28343e-08
3.12947e-06
6.19595e-08
3.09755e-06
6.08402e-08
3.06587e-06
5.98426e-08
3.03457e-06
5.87171e-08
3.0035e-06
5.78974e-08
2.97279e-06
5.69259e-08
2.94231e-06
5.62287e-08
2.9122e-06
5.52264e-08
2.88233e-06
5.46074e-08
2.85296e-06
5.33985e-08
2.82388e-06
5.262e-08
2.79532e-06
5.15133e-08
2.76705e-06
5.07445e-08
2.73929e-06
4.9738e-08
2.71184e-06
4.90181e-08
2.68501e-06
4.77119e-08
2.65845e-06
4.71667e-08
2.63262e-06
4.56054e-08
2.60708e-06
4.49932e-08
2.58236e-06
4.34707e-08
2.55796e-06
4.2538e-08
2.53444e-06
4.11251e-08
2.51126e-06
4.02707e-08
2.48904e-06
3.83417e-08
2.46716e-06
3.78819e-08
2.44645e-06
3.55212e-08
2.42596e-06
3.4941e-08
2.40678e-06
3.28826e-08
2.38777e-06
3.22257e-08
2.37001e-06
2.99483e-08
2.35263e-06
2.95502e-08
2.33668e-06
2.66476e-08
2.32044e-06
2.72668e-08
2.30578e-06
2.47729e-08
2.29117e-06
2.46652e-08
2.44483e-08
4.85903e-06
6.27789e-08
4.86321e-06
8.14676e-08
4.86772e-06
9.80407e-08
4.86907e-06
1.07682e-07
4.86839e-06
1.11202e-07
4.86814e-06
1.12245e-07
4.86869e-06
1.15041e-07
4.86992e-06
1.19292e-07
4.87135e-06
1.24434e-07
4.87268e-06
1.29969e-07
4.87388e-06
1.35756e-07
4.87497e-06
1.41833e-07
4.87595e-06
1.48254e-07
4.87682e-06
1.55038e-07
4.87753e-06
1.62133e-07
4.87805e-06
1.69347e-07
4.87839e-06
1.76663e-07
4.87852e-06
1.84073e-07
4.87843e-06
1.91394e-07
4.87808e-06
1.98245e-07
4.87746e-06
2.04054e-07
4.87657e-06
2.08193e-07
4.87512e-06
2.09674e-07
4.87294e-06
2.07484e-07
4.86982e-06
2.0073e-07
4.86542e-06
1.88699e-07
4.85938e-06
1.71534e-07
4.85182e-06
1.50721e-07
4.84335e-06
1.29356e-07
4.83478e-06
1.11028e-07
4.82644e-06
9.80583e-08
4.81812e-06
9.02147e-08
4.8096e-06
8.60076e-08
4.80079e-06
8.40631e-08
4.79154e-06
8.33595e-08
4.78195e-06
8.34795e-08
4.77204e-06
8.43099e-08
4.76178e-06
8.54932e-08
4.75109e-06
8.68488e-08
4.73995e-06
8.81045e-08
4.72831e-06
8.93339e-08
4.71615e-06
9.02977e-08
4.70343e-06
9.11572e-08
4.69017e-06
9.18634e-08
4.67628e-06
9.25537e-08
4.66184e-06
9.28507e-08
4.64677e-06
9.30667e-08
4.63112e-06
9.31822e-08
4.61484e-06
9.32533e-08
4.59799e-06
9.30832e-08
4.58053e-06
9.29301e-08
4.5625e-06
9.27112e-08
4.54386e-06
9.25774e-08
4.52468e-06
9.2202e-08
4.50489e-06
9.19571e-08
4.48458e-06
9.14869e-08
4.46369e-06
9.11124e-08
4.44234e-06
9.03673e-08
4.42044e-06
8.98628e-08
4.39811e-06
8.91088e-08
4.37524e-06
8.86679e-08
4.35199e-06
8.79836e-08
4.32821e-06
8.76109e-08
4.30411e-06
8.69421e-08
4.27949e-06
8.6574e-08
4.25458e-06
8.57474e-08
4.22924e-06
8.51851e-08
4.20366e-06
8.43024e-08
4.17768e-06
8.38778e-08
4.15145e-06
8.31562e-08
4.12485e-06
8.28246e-08
4.09804e-06
8.20328e-08
4.07083e-06
8.18241e-08
4.04359e-06
8.06368e-08
4.01596e-06
8.02528e-08
3.98839e-06
7.90775e-08
3.96048e-06
7.86605e-08
3.93259e-06
7.762e-08
3.90449e-06
7.71179e-08
3.87652e-06
7.56895e-08
3.84832e-06
7.53597e-08
3.82051e-06
7.34191e-08
3.79237e-06
7.31341e-08
3.76487e-06
7.09741e-08
3.73711e-06
7.02911e-08
3.70994e-06
6.83e-08
3.68281e-06
6.74002e-08
3.65629e-06
6.48555e-08
3.62973e-06
6.44478e-08
3.60433e-06
6.09198e-08
3.5786e-06
6.06662e-08
3.55419e-06
5.72935e-08
3.52977e-06
5.66529e-08
3.50638e-06
5.33341e-08
3.48321e-06
5.27185e-08
3.46163e-06
4.82279e-08
3.43947e-06
4.94305e-08
3.41902e-06
4.52181e-08
3.39857e-06
4.51146e-08
4.38374e-08
5.24884e-06
6.31345e-08
5.25184e-06
7.84675e-08
5.25587e-06
9.40051e-08
5.25834e-06
1.05213e-07
5.25874e-06
1.10799e-07
5.2585e-06
1.12491e-07
5.25873e-06
1.14809e-07
5.25981e-06
1.18206e-07
5.26142e-06
1.22825e-07
5.26312e-06
1.28275e-07
5.26472e-06
1.34148e-07
5.26632e-06
1.40233e-07
5.26793e-06
1.46646e-07
5.26959e-06
1.5338e-07
5.2713e-06
1.60426e-07
5.27308e-06
1.67561e-07
5.27498e-06
1.74768e-07
5.27705e-06
1.82e-07
5.27932e-06
1.89129e-07
5.28184e-06
1.95718e-07
5.28462e-06
2.01273e-07
5.28771e-06
2.05111e-07
5.29083e-06
2.06548e-07
5.2938e-06
2.04515e-07
5.29631e-06