/*--------------------------------*- C++ -*----------------------------------*\
| =========                 |                                                 |
| \\      /  F ield         | OpenFOAM: The Open Source CFD Toolbox           |
|  \\    /   O peration     | Version:  v2106                                 |
|   \\  /    A nd           | Website:  www.openfoam.com                      |
|    \\/     M anipulation  |                                                 |
\*---------------------------------------------------------------------------*/
FoamFile
{
    version     2.0;
    format      ascii;
    arch        "LSB;label=32;scalar=64";
    class       volVectorField;
    location    "1.4";
    object      U;
}
// * * * * * * * * * * * * * * * * * * * * * * * * * * * * * * * * * * * * * //

dimensions      [0 1 -1 0 0 0 0];

internalField   nonuniform List<vector> 
4800
(
(0.960242 0.000134041 0)
(1.03927 -0.000255062 0)
(0.963815 0.000264527 0)
(1.03583 -8.32632e-05 0)
(0.967603 6.26887e-05 0)
(1.03213 -0.000416485 0)
(0.970798 -1.35549e-05 0)
(1.02873 -0.000622992 0)
(0.973526 -0.000117665 0)
(1.02529 -0.0004943 0)
(0.976382 6.3393e-05 0)
(1.02232 -0.000428665 0)
(0.97894 0.000183967 0)
(1.01952 -0.000315606 0)
(0.981212 0.000252478 0)
(1.01671 -0.000248081 0)
(0.982967 0.000251366 0)
(1.01378 -0.000201874 0)
(0.984008 0.000438399 0)
(1.01063 0.000752346 0)
(0.98258 6.07068e-05 0)
(1.01496 -0.000202704 0)
(0.986547 0.00022209 0)
(1.01175 -5.40313e-05 0)
(0.990179 3.06768e-05 0)
(1.00874 -0.000410665 0)
(0.992775 -4.02863e-05 0)
(1.00635 -0.000628892 0)
(0.994529 -0.000139508 0)
(1.00419 -0.000545837 0)
(0.996099 4.38092e-05 0)
(1.00269 -0.000486955 0)
(0.997195 0.000155919 0)
(1.00146 -0.000365214 0)
(0.997903 0.000232357 0)
(1.00029 -0.000275616 0)
(0.998066 0.000325726 0)
(0.999022 3.03384e-05 0)
(0.997743 0.00109846 0)
(0.997649 0.00189169 0)
(0.995904 0.000141908 0)
(1.00286 -0.000272025 0)
(0.997453 0.000270764 0)
(1.00202 -0.000131982 0)
(0.998757 8.98669e-05 0)
(1.00129 -0.000393791 0)
(0.999399 -2.30571e-05 0)
(1.00086 -0.00054871 0)
(0.999535 -0.000168891 0)
(1.0003 -0.000399269 0)
(0.999708 -6.73328e-05 0)
(1.00006 -0.00029747 0)
(0.999694 -2.05991e-05 0)
(0.999833 -0.000202756 0)
(0.99954 3.0251e-05 0)
(0.999416 -2.58985e-05 0)
(0.999101 0.000237283 0)
(0.998793 0.000601318 0)
(0.998443 0.00138806 0)
(0.998032 0.00239847 0)
(0.999447 0.000117852 0)
(1.00034 -0.000259983 0)
(0.999879 0.000237926 0)
(1.00049 -9.7063e-05 0)
(1.00034 1.98305e-05 0)
(1.00047 -0.0003707 0)
(1.00047 -0.000113214 0)
(1.00051 -0.000477746 0)
(1.00029 -0.000283485 0)
(1.00023 -0.000320366 0)
(1.00023 -0.000194802 0)
(1.00015 -0.000261903 0)
(1.00007 -0.000130842 0)
(0.999999 -0.000187645 0)
(0.999846 -4.08388e-05 0)
(0.999634 6.81475e-05 0)
(0.999411 0.000305846 0)
(0.999122 0.000852014 0)
(0.998857 0.00166782 0)
(0.998486 0.00262952 0)
(1.00002 0.000121863 0)
(1.00005 -0.000246277 0)
(1.00024 0.000190602 0)
(1.00037 -8.12637e-05 0)
(1.00057 -1.74021e-05 0)
(1.00047 -0.000282153 0)
(1.00066 -0.00018678 0)
(1.00056 -0.000383641 0)
(1.00046 -0.000324895 0)
(1.00032 -0.000293986 0)
(1.00037 -0.000249472 0)
(1.00024 -0.000275621 0)
(1.00021 -0.000193818 0)
(1.00011 -0.000159459 0)
(0.999997 -6.46599e-05 0)
(0.999775 0.00014781 0)
(0.99962 0.000490009 0)
(0.999387 0.00125687 0)
(0.999183 0.00204629 0)
(0.998809 0.00287377 0)
(1.00011 0.000107406 0)
(1 -0.000216774 0)
(1.00031 0.000124277 0)
(1.00034 -2.37607e-05 0)
(1.00062 -0.000115069 0)
(1.00045 -0.000210624 0)
(1.0007 -0.000263291 0)
(1.00055 -0.000368849 0)
(1.00052 -0.000376649 0)
(1.00033 -0.000307076 0)
(1.00043 -0.000312774 0)
(1.00026 -0.000277501 0)
(1.00028 -0.000222131 0)
(1.00013 -0.000141438 0)
(1.00008 -2.97457e-05 0)
(0.999859 0.00031983 0)
(0.99982 0.000917633 0)
(0.999587 0.001666 0)
(0.999416 0.0023055 0)
(0.999024 0.00297197 0)
(1.00014 9.30424e-05 0)
(0.999973 -0.000177105 0)
(1.00035 4.74544e-05 0)
(1.00032 9.39616e-06 0)
(1.00064 -0.000163136 0)
(1.00043 -0.000188148 0)
(1.00072 -0.000269076 0)
(1.00053 -0.000368349 0)
(1.00054 -0.000392213 0)
(1.00032 -0.000342426 0)
(1.00046 -0.000326523 0)
(1.00026 -0.00029302 0)
(1.00031 -0.000216456 0)
(1.00015 -0.000121734 0)
(1.00017 0.000154866 0)
(0.999986 0.00073802 0)
(0.999993 0.00131498 0)
(0.999736 0.00186306 0)
(0.999592 0.00238652 0)
(0.999205 0.00296407 0)
(1.00014 8.36762e-05 0)
(0.999975 -0.000141008 0)
(1.00035 -2.55187e-05 0)
(1.00032 2.52148e-05 0)
(1.00063 -0.000164596 0)
(1.00043 -0.000214396 0)
(1.00071 -0.000288373 0)
(1.00052 -0.000397934 0)
(1.00054 -0.000419801 0)
(1.00033 -0.000375168 0)
(1.00046 -0.00034389 0)
(1.00027 -0.000305043 0)
(1.00033 -0.000163257 0)
(1.00021 4.83233e-05 0)
(1.00029 0.000566239 0)
(1.00012 0.00108076 0)
(1.00011 0.00148668 0)
(0.99987 0.00190743 0)
(0.99975 0.00239383 0)
(0.999397 0.00294413 0)
(1.00011 5.87294e-05 0)
(1 -9.89575e-05 0)
(1.00033 -7.31274e-05 0)
(1.00035 -9.34842e-06 0)
(1.0006 -0.000163383 0)
(1.00045 -0.000233145 0)
(1.00068 -0.000336083 0)
(1.00054 -0.000420741 0)
(1.00053 -0.00044053 0)
(1.00035 -0.00039335 0)
(1.00046 -0.000356637 0)
(1.00031 -0.000269962 0)
(1.00037 -7.91026e-06 0)
(1.00032 0.000456261 0)
(1.00039 0.000864549 0)
(1.00023 0.00120764 0)
(1.0002 0.00152896 0)
(1.00001 0.00192306 0)
(0.999906 0.00240229 0)
(0.999603 0.00293648 0)
(1.00008 6.35865e-05 0)
(1.00004 -9.09103e-05 0)
(1.00029 -6.37326e-05 0)
(1.00038 -8.77048e-05 0)
(1.00056 -0.000187041 0)
(1.00048 -0.00026538 0)
(1.00065 -0.000357037 0)
(1.00056 -0.000471124 0)
(1.00051 -0.000444969 0)
(1.00038 -0.00041845 0)
(1.00045 -0.000322009 0)
(1.00038 -0.000108383 0)
(1.00046 0.000355497 0)
(1.00043 0.000726325 0)
(1.00044 0.000986785 0)
(1.00032 0.00125346 0)
(1.00029 0.00157648 0)
(1.00017 0.00197622 0)
(1.00007 0.00244942 0)
(0.999817 0.00296167 0)
(1.00006 2.51935e-05 0)
(1.00006 -3.38135e-05 0)
(1.00027 -0.000101898 0)
(1.0004 -9.66655e-05 0)
(1.00054 -0.000290474 0)
(1.00049 -0.000281499 0)
(1.00062 -0.000391798 0)
(1.00058 -0.000466351 0)
(1.00051 -0.000463704 0)
(1.00041 -0.000354413 0)
(1.00049 -0.000159385 0)
(1.00048 0.000248949 0)
(1.00052 0.000567792 0)
(1.0005 0.000794173 0)
(1.0005 0.00100921 0)
(1.00042 0.00128637 0)
(1.0004 0.00162566 0)
(1.00033 0.00202956 0)
(1.00024 0.00248906 0)
(1.00003 0.00297447 0)
(1.00004 3.22236e-05 0)
(1.00007 -2.97024e-05 0)
(1.00025 -9.49136e-05 0)
(1.0004 -0.000133875 0)
(1.00052 -0.000351681 0)
(1.0005 -0.00039143 0)
(1.00061 -0.000395467 0)
(1.00058 -0.000465719 0)
(1.00051 -0.000419623 0)
(1.00047 -0.000220854 0)
(1.00056 0.000170128 0)
(1.00055 0.000423812 0)
(1.00057 0.00062089 0)
(1.00056 0.000808616 0)
(1.00057 0.00104774 0)
(1.00053 0.00134606 0)
(1.00053 0.00169741 0)
(1.00049 0.00209593 0)
(1.00043 0.00253629 0)
(1.00024 0.00299292 0)
(1.00004 -7.65226e-08 0)
(1.00006 9.77429e-06 0)
(1.00024 -0.000134851 0)
(1.00039 -0.000131756 0)
(1.0005 -0.000418492 0)
(1.00051 -0.000475991 0)
(1.00061 -0.000455312 0)
(1.00059 -0.000402605 0)
(1.00055 -0.000265412 0)
(1.00055 4.41666e-05 0)
(1.00062 0.000283139 0)
(1.0006 0.000457719 0)
(1.00061 0.000644252 0)
(1.00063 0.000848253 0)
(1.00065 0.00110807 0)
(1.00064 0.00142126 0)
(1.00066 0.00177274 0)
(1.00066 0.00215647 0)
(1.00062 0.00257272 0)
(1.00045 0.00299889 0)
(1.00004 1.53268e-06 0)
(1.00006 -8.19685e-06 0)
(1.00023 -0.000127065 0)
(1.00037 -0.000193088 0)
(1.00047 -0.000389527 0)
(1.00051 -0.000553342 0)
(1.00062 -0.000463304 0)
(1.00063 -0.000335486 0)
(1.00061 -1.35175e-05 0)
(1.00059 0.000194854 0)
(1.00066 0.000326049 0)
(1.00065 0.000489777 0)
(1.00067 0.000694937 0)
(1.00071 0.000916396 0)
(1.00075 0.00118345 0)
(1.00077 0.00149857 0)
(1.00081 0.00184124 0)
(1.00083 0.00220781 0)
(1.00081 0.00259656 0)
(1.00065 0.00299194 0)
(1.00003 -2.3012e-05 0)
(1.00005 -1.74143e-05 0)
(1.00022 -0.000138599 0)
(1.00036 -0.000244433 0)
(1.00045 -0.000381992 0)
(1.00051 -0.000478272 0)
(1.00066 -0.000403206 0)
(1.00069 -0.000220322 0)
(1.00067 5.27501e-05 0)
(1.00063 0.000253244 0)
(1.0007 0.000391614 0)
(1.00071 0.000550693 0)
(1.00074 0.000768094 0)
(1.00079 0.000994877 0)
(1.00086 0.00126009 0)
(1.0009 0.00156874 0)
(1.00096 0.00190289 0)
(1.001 0.00225183 0)
(1.001 0.0026133 0)
(1.00086 0.0029789 0)
(1.00003 -2.72583e-05 0)
(1.00004 -5.96428e-05 0)
(1.00021 -0.000152646 0)
(1.00034 -0.00027435 0)
(1.00045 -0.000371976 0)
(1.00052 -0.000362723 0)
(1.00069 -0.000250708 0)
(1.00074 -0.000150253 0)
(1.00072 5.31239e-05 0)
(1.00068 0.000265808 0)
(1.00074 0.000434026 0)
(1.00077 0.000599418 0)
(1.00082 0.000821554 0)
(1.00089 0.00105203 0)
(1.00098 0.00131289 0)
(1.00104 0.00161264 0)
(1.00112 0.0019362 0)
(1.00118 0.0022678 0)
(1.0012 0.00260326 0)
(1.00107 0.00294181 0)
(1.00003 -4.1582e-05 0)
(1.00004 -0.000101937 0)
(1.0002 -0.000191003 0)
(1.00033 -0.000250043 0)
(1.00046 -0.000341768 0)
(1.00055 -0.000277097 0)
(1.00072 -0.000140063 0)
(1.00078 -7.03642e-05 0)
(1.00079 9.65662e-05 0)
(1.00075 0.000304251 0)
(1.00081 0.000495785 0)
(1.00085 0.000673638 0)
(1.00092 0.000896888 0)
(1.001 0.00112989 0)
(1.00111 0.0013845 0)
(1.00119 0.00167322 0)
(1.00129 0.0019832 0)
(1.00136 0.00229732 0)
(1.00139 0.00260863 0)
(1.00128 0.00292086 0)
(1.00003 -5.2792e-05 0)
(1.00004 -0.000123431 0)
(1.0002 -0.000232582 0)
(1.00034 -0.000234848 0)
(1.00047 -0.000256902 0)
(1.00059 -0.000211673 0)
(1.00077 -7.05242e-05 0)
(1.00083 2.15752e-05 0)
(1.00085 0.00016855 0)
(1.00083 0.000353941 0)
(1.00089 0.000548893 0)
(1.00093 0.000730579 0)
(1.00102 0.000953083 0)
(1.00111 0.00118527 0)
(1.00124 0.00143507 0)
(1.00135 0.00171175 0)
(1.00147 0.00200742 0)
(1.00155 0.00230504 0)
(1.0016 0.00259514 0)
(1.00149 0.00288223 0)
(1.00003 -6.68588e-05 0)
(1.00003 -0.000130531 0)
(1.00021 -0.000262549 0)
(1.00036 -0.000233796 0)
(1.0005 -0.00016747 0)
(1.00063 -0.000133281 0)
(1.00082 -1.54717e-05 0)
(1.00088 8.4048e-05 0)
(1.00092 0.000227742 0)
(1.0009 0.000393277 0)
(1.00097 0.000588736 0)
(1.00103 0.000774555 0)
(1.00113 0.000999965 0)
(1.00124 0.00123123 0)
(1.00138 0.00147699 0)
(1.00151 0.00174056 0)
(1.00165 0.0020208 0)
(1.00175 0.00230245 0)
(1.0018 0.00257368 0)
(1.00171 0.00283828 0)
(1.00003 -7.08386e-05 0)
(1.00003 -0.000143672 0)
(1.00022 -0.00025277 0)
(1.00039 -0.000234075 0)
(1.00054 -0.000110782 0)
(1.00067 -5.19081e-05 0)
(1.00087 4.24199e-05 0)
(1.00094 0.000134609 0)
(1.00099 0.000284261 0)
(1.00099 0.000442315 0)
(1.00106 0.000636135 0)
(1.00114 0.000823631 0)
(1.00125 0.00104883 0)
(1.00137 0.00127785 0)
(1.00153 0.00151847 0)
(1.00168 0.00176871 0)
(1.00184 0.00203255 0)
(1.00195 0.00229745 0)
(1.00201 0.00255079 0)
(1.00192 0.00279449 0)
(1.00003 -7.24041e-05 0)
(1.00003 -0.000148585 0)
(1.00023 -0.000225036 0)
(1.00042 -0.000215359 0)
(1.00059 -7.91196e-05 0)
(1.00071 9.23598e-07 0)
(1.00092 9.771e-05 0)
(1.001 0.000189604 0)
(1.00106 0.000342491 0)
(1.00108 0.000496799 0)
(1.00116 0.000686243 0)
(1.00125 0.000870503 0)
(1.00138 0.00109221 0)
(1.00151 0.00131642 0)
(1.00169 0.00155127 0)
(1.00186 0.00178827 0)
(1.00203 0.00203543 0)
(1.00216 0.00228228 0)
(1.00223 0.00251865 0)
(1.00214 0.00274271 0)
(1.00003 -7.22547e-05 0)
(1.00003 -0.000136411 0)
(1.00025 -0.000186105 0)
(1.00046 -0.000186854 0)
(1.00065 -5.70417e-05 0)
(1.00076 4.07378e-05 0)
(1.00098 0.000142232 0)
(1.00107 0.000235002 0)
(1.00115 0.000391564 0)
(1.00117 0.000546944 0)
(1.00127 0.000735334 0)
(1.00137 0.000913454 0)
(1.00152 0.0011303 0)
(1.00167 0.00134718 0)
(1.00186 0.00157516 0)
(1.00204 0.00180038 0)
(1.00223 0.00203084 0)
(1.00236 0.00225989 0)
(1.00244 0.0024785 0)
(1.00236 0.00268465 0)
(1.00003 -6.70368e-05 0)
(1.00003 -0.000119459 0)
(1.00026 -0.000145828 0)
(1.00049 -0.000158336 0)
(1.0007 -3.47855e-05 0)
(1.00082 7.56715e-05 0)
(1.00104 0.000182634 0)
(1.00114 0.000274538 0)
(1.00123 0.00043569 0)
(1.00127 0.000593004 0)
(1.00137 0.000782709 0)
(1.0015 0.000955273 0)
(1.00166 0.00116207 0)
(1.00183 0.00137121 0)
(1.00203 0.00158897 0)
(1.00223 0.00180385 0)
(1.00243 0.0020178 0)
(1.00257 0.00222954 0)
(1.00265 0.00243002 0)
(1.00257 0.0026194 0)
(1.00003 -5.96748e-05 0)
(1.00004 -9.9862e-05 0)
(1.00028 -0.000104294 0)
(1.00052 -0.00012129 0)
(1.00076 -1.59978e-05 0)
(1.00088 0.000103793 0)
(1.00109 0.000224055 0)
(1.00122 0.000314034 0)
(1.00132 0.000474033 0)
(1.00138 0.000633762 0)
(1.00149 0.000823556 0)
(1.00162 0.000993777 0)
(1.0018 0.00118859 0)
(1.00199 0.00138707 0)
(1.0022 0.00159452 0)
(1.00241 0.00179721 0)
(1.00262 0.00199637 0)
(1.00278 0.00219073 0)
(1.00286 0.00237415 0)
(1.00278 0.00254758 0)
(1.00002 -4.91755e-05 0)
(1.00005 -8.19264e-05 0)
(1.0003 -6.67035e-05 0)
(1.00055 -8.21057e-05 0)
(1.00082 6.77159e-06 0)
(1.00095 0.000128447 0)
(1.00116 0.000262843 0)
(1.00129 0.000355903 0)
(1.00141 0.000507771 0)
(1.00149 0.000664868 0)
(1.0016 0.000855522 0)
(1.00175 0.00102366 0)
(1.00194 0.00120995 0)
(1.00214 0.00139558 0)
(1.00237 0.00159071 0)
(1.00259 0.00178089 0)
(1.00281 0.00196482 0)
(1.00298 0.00214368 0)
(1.00306 0.00231054 0)
(1.00299 0.00246921 0)
(1.00003 -3.77913e-05 0)
(1.00005 -6.41605e-05 0)
(1.00031 -3.38203e-05 0)
(1.00057 -4.04611e-05 0)
(1.00087 3.37692e-05 0)
(1.00101 0.000149548 0)
(1.00122 0.000293246 0)
(1.00137 0.000392412 0)
(1.00151 0.000540371 0)
(1.0016 0.000690323 0)
(1.00172 0.000880122 0)
(1.00188 0.00104624 0)
(1.00209 0.00122481 0)
(1.0023 0.0013979 0)
(1.00254 0.00157734 0)
(1.00277 0.00175391 0)
(1.003 0.00192277 0)
(1.00317 0.00208673 0)
(1.00326 0.00223878 0)
(1.00319 0.00238291 0)
(1.00003 -2.69449e-05 0)
(1.00006 -4.60524e-05 0)
(1.00033 -5.0636e-06 0)
(1.0006 1.02794e-06 0)
(1.00092 6.40653e-05 0)
(1.00108 0.00016876 0)
(1.00129 0.000321053 0)
(1.00144 0.000428621 0)
(1.0016 0.000569157 0)
(1.00171 0.000710967 0)
(1.00185 0.00089114 0)
(1.00201 0.00105616 0)
(1.00223 0.00122714 0)
(1.00245 0.00138986 0)
(1.00271 0.00155614 0)
(1.00295 0.0017175 0)
(1.00318 0.00187397 0)
(1.00335 0.00202169 0)
(1.00345 0.00216113 0)
(1.00338 0.00228977 0)
(1.00003 -1.58585e-05 0)
(1.00007 -2.80658e-05 0)
(1.00034 1.6462e-05 0)
(1.00062 4.02194e-05 0)
(1.00096 0.000103613 0)
(1.00115 0.000190939 0)
(1.00137 0.000337433 0)
(1.00152 0.000456944 0)
(1.00168 0.000593806 0)
(1.00182 0.000728467 0)
(1.00197 0.000897371 0)
(1.00214 0.00105666 0)
(1.00237 0.00122074 0)
(1.0026 0.00137143 0)
(1.00287 0.00152554 0)
(1.00312 0.00167121 0)
(1.00336 0.00181477 0)
(1.00353 0.00194749 0)
(1.00363 0.00207404 0)
(1.00356 0.00218903 0)
(1.00002 -8.16917e-06 0)
(1.00008 -7.96033e-06 0)
(1.00036 3.98566e-05 0)
(1.00064 7.13351e-05 0)
(1.00099 0.000138129 0)
(1.00121 0.000217813 0)
(1.00144 0.000352839 0)
(1.0016 0.00047446 0)
(1.00177 0.000611899 0)
(1.00192 0.000738437 0)
(1.00209 0.000896131 0)
(1.00228 0.00104487 0)
(1.0025 0.0012021 0)
(1.00275 0.00134141 0)
(1.00302 0.00148346 0)
(1.00327 0.00161518 0)
(1.00352 0.00174511 0)
(1.0037 0.00186478 0)
(1.0038 0.00197861 0)
(1.00373 0.00208183 0)
(1.00002 4.48347e-07 0)
(1.00008 8.13188e-06 0)
(1.00038 5.75245e-05 0)
(1.00066 0.000101083 0)
(1.00103 0.000168189 0)
(1.00126 0.000241177 0)
(1.00151 0.000368996 0)
(1.00168 0.000485634 0)
(1.00186 0.000620109 0)
(1.00202 0.000741468 0)
(1.00221 0.000885254 0)
(1.0024 0.0010238 0)
(1.00264 0.00116988 0)
(1.00288 0.00130064 0)
(1.00317 0.0014313 0)
(1.00342 0.00154992 0)
(1.00368 0.00166765 0)
(1.00386 0.00177318 0)
(1.00396 0.001876 0)
(1.00389 0.00196642 0)
(1.00002 5.86298e-06 0)
(1.0001 2.52233e-05 0)
(1.00039 7.44642e-05 0)
(1.00069 0.000122813 0)
(1.00106 0.000196263 0)
(1.00132 0.00026021 0)
(1.00158 0.000376199 0)
(1.00176 0.000490304 0)
(1.00194 0.000618735 0)
(1.00212 0.000737403 0)
(1.00232 0.000870656 0)
(1.00253 0.000995715 0)
(1.00277 0.00112888 0)
(1.00302 0.00124715 0)
(1.00331 0.00136792 0)
(1.00357 0.00147298 0)
(1.00383 0.00157991 0)
(1.00401 0.00167244 0)
(1.00412 0.00176449 0)
(1.00404 0.00184399 0)
(1.00002 1.13241e-05 0)
(1.0001 3.7669e-05 0)
(1.00041 9.10069e-05 0)
(1.00071 0.000137008 0)
(1.0011 0.000215666 0)
(1.00136 0.00028087 0)
(1.00165 0.000382146 0)
(1.00183 0.00048667 0)
(1.00203 0.00060759 0)
(1.00221 0.000718149 0)
(1.00242 0.000842799 0)
(1.00264 0.000955828 0)
(1.00289 0.00107756 0)
(1.00315 0.00118375 0)
(1.00344 0.00129418 0)
(1.0037 0.00138835 0)
(1.00396 0.00148372 0)
(1.00415 0.00156585 0)
(1.00425 0.00164645 0)
(1.00418 0.00171643 0)
(1.00002 1.67433e-05 0)
(1.0001 4.61648e-05 0)
(1.00041 0.00010485 0)
(1.00073 0.000152785 0)
(1.00113 0.000222397 0)
(1.00141 0.000288123 0)
(1.00171 0.000385095 0)
(1.00191 0.000476754 0)
(1.00211 0.000589404 0)
(1.00231 0.000690902 0)
(1.00252 0.000803373 0)
(1.00275 0.000906912 0)
(1.00301 0.00101481 0)
(1.00327 0.00111071 0)
(1.00356 0.00120745 0)
(1.00382 0.00129259 0)
(1.00409 0.00137563 0)
(1.00427 0.00144876 0)
(1.00438 0.00151895 0)
(1.0043 0.00158012 0)
(1.00002 1.91583e-05 0)
(1.00011 5.64242e-05 0)
(1.00042 0.000113612 0)
(1.00075 0.000158748 0)
(1.00115 0.000229828 0)
(1.00145 0.000287682 0)
(1.00176 0.000374501 0)
(1.00197 0.00045839 0)
(1.00219 0.000560975 0)
(1.00239 0.00065245 0)
(1.00262 0.000753673 0)
(1.00285 0.000845832 0)
(1.00311 0.000941115 0)
(1.00337 0.00102662 0)
(1.00367 0.00111102 0)
(1.00394 0.00118587 0)
(1.0042 0.00125904 0)
(1.00439 0.00132221 0)
(1.00449 0.00138438 0)
(1.00441 0.0014363 0)
(1.00002 2.28393e-05 0)
(1.00011 6.03506e-05 0)
(1.00044 0.000116677 0)
(1.00077 0.000161792 0)
(1.00118 0.000224762 0)
(1.00148 0.000283275 0)
(1.0018 0.000356229 0)
(1.00203 0.000426912 0)
(1.00225 0.000521508 0)
(1.00247 0.000600398 0)
(1.0027 0.000691858 0)
(1.00294 0.000771878 0)
(1.00321 0.000854997 0)
(1.00347 0.000931384 0)
(1.00377 0.00100395 0)
(1.00404 0.00106935 0)
(1.0043 0.0011328 0)
(1.00449 0.00118723 0)
(1.00459 0.0012417 0)
(1.00451 0.00128571 0)
(1.00002 2.4145e-05 0)
(1.00012 6.09974e-05 0)
(1.00044 0.000118118 0)
(1.00078 0.000160377 0)
(1.0012 0.000209198 0)
(1.00152 0.000263221 0)
(1.00184 0.00033443 0)
(1.00209 0.000387346 0)
(1.00232 0.000469872 0)
(1.00253 0.000540005 0)
(1.00278 0.000615016 0)
(1.00301 0.000688542 0)
(1.00329 0.000756655 0)
(1.00356 0.000825929 0)
(1.00386 0.000886841 0)
(1.00412 0.000943501 0)
(1.00439 0.000997328 0)
(1.00457 0.00104296 0)
(1.00468 0.00108987 0)
(1.0046 0.00112589 0)
(1.00002 2.39256e-05 0)
(1.00012 6.17009e-05 0)
(1.00044 0.000111852 0)
(1.00079 0.00014824 0)
(1.0012 0.000196697 0)
(1.00154 0.000232514 0)
(1.00187 0.000297165 0)
(1.00212 0.000339272 0)
(1.00237 0.000407046 0)
(1.00259 0.000468431 0)
(1.00284 0.00053065 0)
(1.00308 0.000591386 0)
(1.00336 0.000649489 0)
(1.00363 0.000704153 0)
(1.00393 0.000757104 0)
(1.0042 0.000801476 0)
(1.00446 0.000847539 0)
(1.00465 0.000883746 0)
(1.00475 0.000923728 0)
(1.00467 0.000952916 0)
(1.00002 2.11617e-05 0)
(1.00012 5.54183e-05 0)
(1.00045 9.85966e-05 0)
(1.00079 0.000129351 0)
(1.00121 0.000164619 0)
(1.00155 0.000196042 0)
(1.00189 0.0002438 0)
(1.00215 0.000277038 0)
(1.00242 0.000332869 0)
(1.00264 0.000377822 0)
(1.00289 0.000431264 0)
(1.00314 0.000475733 0)
(1.00342 0.000522747 0)
(1.00369 0.000565596 0)
(1.00399 0.000605685 0)
(1.00426 0.00064274 0)
(1.00452 0.000675524 0)
(1.00471 0.000706552 0)
(1.00481 0.000734812 0)
(1.00473 0.000760065 0)
(1.00002 2.00284e-05 0)
(1.00012 4.6662e-05 0)
(1.00045 8.28115e-05 0)
(1.00079 0.000110359 0)
(1.00122 0.000140691 0)
(1.00157 0.000164599 0)
(1.0019 0.000206248 0)
(1.00218 0.000226836 0)
(1.00245 0.000274007 0)
(1.00267 0.000310208 0)
(1.00293 0.000352868 0)
(1.00318 0.000392061 0)
(1.00347 0.000428823 0)
(1.00374 0.000467662 0)
(1.00403 0.000499752 0)
(1.0043 0.000532102 0)
(1.00456 0.000559364 0)
(1.00475 0.000584996 0)
(1.00485 0.000609665 0)
(1.00477 0.00062963 0)
(1.00002 1.09517e-05 0)
(1.00012 2.16374e-05 0)
(1.00045 3.83898e-05 0)
(1.00079 5.11514e-05 0)
(1.00122 6.85857e-05 0)
(1.00158 7.63025e-05 0)
(1.00192 9.9518e-05 0)
(1.00219 0.000107637 0)
(1.00248 0.000129373 0)
(1.0027 0.000147079 0)
(1.00297 0.000166325 0)
(1.00322 0.000184975 0)
(1.00351 0.000202917 0)
(1.00379 0.000220745 0)
(1.00408 0.000237951 0)
(1.00435 0.000251966 0)
(1.00461 0.00026772 0)
(1.0048 0.000278419 0)
(1.0049 0.000292994 0)
(1.00482 0.000301234 0)
(0.984647 0.00216694 0)
(0.960507 0.00334824 0)
(0.936158 0.00369862 0)
(0.911333 0.00365657 0)
(0.886063 0.00357252 0)
(0.860404 0.00354288 0)
(0.834396 0.00354323 0)
(0.808009 0.00353744 0)
(0.781224 0.00351421 0)
(0.753995 0.00347835 0)
(0.726303 0.00343692 0)
(0.698122 0.00339164 0)
(0.66946 0.00334393 0)
(0.640292 0.00329453 0)
(0.610624 0.00323951 0)
(0.580501 0.00317534 0)
(0.549984 0.00310804 0)
(0.519076 0.0030359 0)
(0.48786 0.00295471 0)
(0.456404 0.00285276 0)
(0.424974 0.00272372 0)
(0.393736 0.00256184 0)
(0.363185 0.00234548 0)
(0.333918 0.00205579 0)
(0.306712 0.00165317 0)
(0.282524 0.00115754 0)
(0.262297 0.000571043 0)
(0.246756 5.76002e-05 0)
(0.235699 -0.000285993 0)
(0.228063 -0.000451147 0)
(0.222659 -0.000505882 0)
(0.218737 -0.000483685 0)
(0.215726 -0.000448409 0)
(0.213225 -0.000400814 0)
(0.211007 -0.000345254 0)
(0.208862 -0.000287924 0)
(0.206656 -0.000234718 0)
(0.204324 -0.000188365 0)
(0.201853 -0.000148963 0)
(0.199251 -0.000116919 0)
(0.196542 -9.01907e-05 0)
(0.193758 -6.90518e-05 0)
(0.190928 -5.2481e-05 0)
(0.188078 -3.91479e-05 0)
(0.185226 -2.76128e-05 0)
(0.182392 -1.8509e-05 0)
(0.179595 -1.1598e-05 0)
(0.176843 -5.22571e-06 0)
(0.174144 3.14546e-07 0)
(0.171498 4.82785e-06 0)
(0.168915 8.70336e-06 0)
(0.166387 1.23166e-05 0)
(0.163918 1.56036e-05 0)
(0.161498 1.76529e-05 0)
(0.159142 1.93836e-05 0)
(0.156841 2.04228e-05 0)
(0.154606 2.13027e-05 0)
(0.152433 2.13804e-05 0)
(0.150329 2.18245e-05 0)
(0.148286 2.19536e-05 0)
(0.146302 2.21124e-05 0)
(0.144363 2.21452e-05 0)
(0.142476 2.17817e-05 0)
(0.140623 2.13417e-05 0)
(0.138826 2.06016e-05 0)
(0.137061 1.98345e-05 0)
(0.135366 1.89902e-05 0)
(0.133697 1.82419e-05 0)
(0.132095 1.7635e-05 0)
(0.130498 1.70196e-05 0)
(0.128963 1.64985e-05 0)
(0.127425 1.5391e-05 0)
(0.125956 1.51738e-05 0)
(0.124481 1.40735e-05 0)
(0.123091 1.34899e-05 0)
(0.121683 1.29753e-05 0)
(0.120367 1.21035e-05 0)
(0.119011 1.18974e-05 0)
(0.11776 1.13894e-05 0)
(0.116456 1.04677e-05 0)
(0.115277 1.06063e-05 0)
(0.114029 9.41833e-06 0)
(0.112932 9.35276e-06 0)
(0.111736 8.98051e-06 0)
(0.110734 7.77403e-06 0)
(0.109592 8.18907e-06 0)
(0.10868 7.43031e-06 0)
(0.107592 6.45241e-06 0)
(0.106788 7.16999e-06 0)
(0.105739 5.86614e-06 0)
(0.105063 5.33655e-06 0)
(0.104052 5.75018e-06 0)
(0.103496 4.70645e-06 0)
(0.10251 4.4874e-06 0)
(0.102093 4.91759e-06 0)
(0.101107 3.33816e-06 0)
(0.100857 3.86315e-06 0)
(0.0998087 4.58881e-06 0)
(0.0997139 3.93412e-06 0)
(0.0984942 5.66835e-06 0)
(0.997149 0.00403856 0)
(0.996219 0.00586466 0)
(0.994943 0.006517 0)
(0.993269 0.00647402 0)
(0.991128 0.00631824 0)
(0.988442 0.0062693 0)
(0.98522 0.00631321 0)
(0.981396 0.00638386 0)
(0.97696 0.00644536 0)
(0.97183 0.00649607 0)
(0.965983 0.00654361 0)
(0.959348 0.00659238 0)
(0.95191 0.00664338 0)
(0.943595 0.00669655 0)
(0.934389 0.00674744 0)
(0.924241 0.00678763 0)
(0.913158 0.00681862 0)
(0.901066 0.00684102 0)
(0.887972 0.00685116 0)
(0.873818 0.00683611 0)
(0.858689 0.00678421 0)
(0.842577 0.00668263 0)
(0.825671 0.00650811 0)
(0.808186 0.00622629 0)
(0.790459 0.00578086 0)
(0.772954 0.0051653 0)
(0.756188 0.00438312 0)
(0.740696 0.0035419 0)
(0.726683 0.00275956 0)
(0.713961 0.00213969 0)
(0.702203 0.00170031 0)
(0.691122 0.00140363 0)
(0.680575 0.00119858 0)
(0.670371 0.00104609 0)
(0.660479 0.000938729 0)
(0.650784 0.000871181 0)
(0.641247 0.000831167 0)
(0.631786 0.000803981 0)
(0.622411 0.000783042 0)
(0.613096 0.000762491 0)
(0.603845 0.000741454 0)
(0.594667 0.000717951 0)
(0.585591 0.00069391 0)
(0.576601 0.000667939 0)
(0.567718 0.000641626 0)
(0.558964 0.000613496 0)
(0.550366 0.000584231 0)
(0.541907 0.000556712 0)
(0.533631 0.000529312 0)
(0.525513 0.00050246 0)
(0.517602 0.000476793 0)
(0.509843 0.000452538 0)
(0.502298 0.000431142 0)
(0.49491 0.000408991 0)
(0.487729 0.000389063 0)
(0.480706 0.000368987 0)
(0.473887 0.000350553 0)
(0.467238 0.000331519 0)
(0.460789 0.00031429 0)
(0.454504 0.000298016 0)
(0.448417 0.000284005 0)
(0.442461 0.00027104 0)
(0.436696 0.000259442 0)
(0.431022 0.000248527 0)
(0.425545 0.000237777 0)
(0.42013 0.000226619 0)
(0.41494 0.000216114 0)
(0.409785 0.000206242 0)
(0.404864 0.000198298 0)
(0.399928 0.000190513 0)
(0.395236 0.000184261 0)
(0.39049 0.000176306 0)
(0.385992 0.000171 0)
(0.381432 0.000162391 0)
(0.377151 0.000156121 0)
(0.372773 0.00014975 0)
(0.36872 0.000143712 0)
(0.364487 0.000138444 0)
(0.360646 0.000133364 0)
(0.356566 0.000126304 0)
(0.352933 0.000122929 0)
(0.349017 0.000115027 0)
(0.345617 0.00011141 0)
(0.341853 0.000105411 0)
(0.338736 9.91241e-05 0)
(0.335097 9.55176e-05 0)
(0.33229 9.02655e-05 0)
(0.328779 8.29848e-05 0)
(0.326286 8.20053e-05 0)
(0.322923 7.34373e-05 0)
(0.32079 7.01256e-05 0)
(0.317517 6.63686e-05 0)
(0.315802 6.1316e-05 0)
(0.312546 5.60363e-05 0)
(0.311297 5.59384e-05 0)
(0.308088 4.66513e-05 0)
(0.307276 4.80384e-05 0)
(0.30394 4.45714e-05 0)
(0.303708 4.35096e-05 0)
(0.300084 4.7541e-05 0)
(0.997546 0.00364738 0)
(0.997015 0.00480682 0)
(0.996669 0.00547152 0)
(0.99651 0.00559902 0)
(0.99649 0.00553104 0)
(0.996486 0.00550461 0)
(0.996494 0.00558271 0)
(0.996446 0.00572535 0)
(0.996351 0.00588622 0)
(0.996131 0.006046 0)
(0.995784 0.00620717 0)
(0.995239 0.00637048 0)
(0.994498 0.00653927 0)
(0.993493 0.00671126 0)
(0.992223 0.00688605 0)
(0.990639 0.00705071 0)
(0.988742 0.00721034 0)
(0.986468 0.00736382 0)
(0.983808 0.0075092 0)
(0.980697 0.0076276 0)
(0.977146 0.00770532 0)
(0.973097 0.00772219 0)
(0.968583 0.00765138 0)
(0.963599 0.00744889 0)
(0.958231 0.00706425 0)
(0.952536 0.00647215 0)
(0.946703 0.00569243 0)
(0.940845 0.00479988 0)
(0.935134 0.00393065 0)
(0.929511 0.00322178 0)
(0.924015 0.00273284 0)
(0.918496 0.00241876 0)
(0.913038 0.00222525 0)
(0.907504 0.00209711 0)
(0.901988 0.00201571 0)
(0.896364 0.00197154 0)
(0.890705 0.00195216 0)
(0.884881 0.00194239 0)
(0.878982 0.00193337 0)
(0.872899 0.0019189 0)
(0.866721 0.00190068 0)
(0.860359 0.0018732 0)
(0.853908 0.00184094 0)
(0.847292 0.00180498 0)
(0.840582 0.00176599 0)
(0.833726 0.00172014 0)
(0.82682 0.00167031 0)
(0.819758 0.00162049 0)
(0.812693 0.0015691 0)
(0.805476 0.00151486 0)
(0.798295 0.00146168 0)
(0.790969 0.00140896 0)
(0.783694 0.00135857 0)
(0.776301 0.00130635 0)
(0.768965 0.00125659 0)
(0.761527 0.00120621 0)
(0.754171 0.00115763 0)
(0.746735 0.00110714 0)
(0.739417 0.00106051 0)
(0.73202 0.00101374 0)
(0.72477 0.000971389 0)
(0.717425 0.000930244 0)
(0.710265 0.000892449 0)
(0.702977 0.000855671 0)
(0.695931 0.000821281 0)
(0.688711 0.00078542 0)
(0.681808 0.000751954 0)
(0.674694 0.000718845 0)
(0.667956 0.000690612 0)
(0.660945 0.000662263 0)
(0.654365 0.000638318 0)
(0.647468 0.000611558 0)
(0.641032 0.00059058 0)
(0.634269 0.000563788 0)
(0.628028 0.00054218 0)
(0.621398 0.000518896 0)
(0.615402 0.000498945 0)
(0.608874 0.000478699 0)
(0.603131 0.000461074 0)
(0.596732 0.000438695 0)
(0.591242 0.000424521 0)
(0.585004 0.000400792 0)
(0.579796 0.000386742 0)
(0.573708 0.000365909 0)
(0.568884 0.000348547 0)
(0.562867 0.000330916 0)
(0.558521 0.000316358 0)
(0.552597 0.000293442 0)
(0.548672 0.000284691 0)
(0.542945 0.000260088 0)
(0.539514 0.00024909 0)
(0.53383 0.000230854 0)
(0.531104 0.000220236 0)
(0.525348 0.000198767 0)
(0.523289 0.000193606 0)
(0.517655 0.000169414 0)
(0.516235 0.000170446 0)
(0.510397 0.000151688 0)
(0.509897 0.000148516 0)
(0.503754 0.000149236 0)
(0.99802 0.00357308 0)
(0.997443 0.00450895 0)
(0.997024 0.00523004 0)
(0.996818 0.00559733 0)
(0.996857 0.00569497 0)
(0.99699 0.00571673 0)
(0.99723 0.00577757 0)
(0.997477 0.00589814 0)
(0.997789 0.00605014 0)
(0.998075 0.00621441 0)
(0.998392 0.00638276 0)
(0.998654 0.00655536 0)
(0.998924 0.00673021 0)
(0.99912 0.00691074 0)
(0.999304 0.00709351 0)
(0.999417 0.00727296 0)
(0.999526 0.00744875 0)
(0.999557 0.00762427 0)
(0.999567 0.00778806 0)
(0.999477 0.00792784 0)
(0.999357 0.00801937 0)
(0.99911 0.00804953 0)
(0.998809 0.00798142 0)
(0.998329 0.00777767 0)
(0.997759 0.0073958 0)
(0.996937 0.00682422 0)
(0.995997 0.00607827 0)
(0.994769 0.00522599 0)
(0.993441 0.00438683 0)
(0.991832 0.00368751 0)
(0.990191 0.00319045 0)
(0.988321 0.00287449 0)
(0.986509 0.00268313 0)
(0.98453 0.00256752 0)
(0.982656 0.0024975 0)
(0.980617 0.0024555 0)
(0.978677 0.00243337 0)
(0.976539 0.00241945 0)
(0.974471 0.00240893 0)
(0.97218 0.00239493 0)
(0.969927 0.00237903 0)
(0.967434 0.00235564 0)
(0.964963 0.00232867 0)
(0.962239 0.00229895 0)
(0.959534 0.00226825 0)
(0.956559 0.00222898 0)
(0.953629 0.00218728 0)
(0.950379 0.00214495 0)
(0.94722 0.00210177 0)
(0.943709 0.00205446 0)
(0.940316 0.00200786 0)
(0.936551 0.00196149 0)
(0.932923 0.00191753 0)
(0.928921 0.00186983 0)
(0.925058 0.00182554 0)
(0.920817 0.00177819 0)
(0.916733 0.00173306 0)
(0.912261 0.00168263 0)
(0.907979 0.00163634 0)
(0.903283 0.00158781 0)
(0.898827 0.00154441 0)
(0.893908 0.00149967 0)
(0.889303 0.00145986 0)
(0.884163 0.00141755 0)
(0.879431 0.00137986 0)
(0.874075 0.00133709 0)
(0.86923 0.00129803 0)
(0.863683 0.00125593 0)
(0.858745 0.00122114 0)
(0.853032 0.00118357 0)
(0.847999 0.00115243 0)
(0.842139 0.00111624 0)
(0.837005 0.00108745 0)
(0.831 0.00104858 0)
(0.825839 0.00101862 0)
(0.819669 0.000981888 0)
(0.814557 0.000953548 0)
(0.80821 0.000919924 0)
(0.803147 0.000893109 0)
(0.796695 0.000856494 0)
(0.791672 0.000832842 0)
(0.785161 0.000793922 0)
(0.780262 0.000770955 0)
(0.773626 0.00073261 0)
(0.769025 0.000707534 0)
(0.762199 0.000671673 0)
(0.757943 0.000647862 0)
(0.751059 0.00060841 0)
(0.747071 0.000589819 0)
(0.740193 0.000545357 0)
(0.736675 0.000528784 0)
(0.729593 0.000487906 0)
(0.726762 0.000471678 0)
(0.7195 0.000431789 0)
(0.717234 0.000417195 0)
(0.709992 0.000372029 0)
(0.708406 0.000373133 0)
(0.700823 0.0003326 0)
(0.700193 0.00032407 0)
(0.692263 0.000311826 0)
(0.99837 0.00363232 0)
(0.997764 0.00442842 0)
(0.997304 0.00511737 0)
(0.997004 0.00557954 0)
(0.99701 0.00577381 0)
(0.997114 0.00582649 0)
(0.997392 0.00585641 0)
(0.997645 0.00592424 0)
(0.998008 0.00603627 0)
(0.998309 0.00617781 0)