/*--------------------------------*- C++ -*----------------------------------*\
| =========                 |                                                 |
| \\      /  F ield         | OpenFOAM: The Open Source CFD Toolbox           |
|  \\    /   O peration     | Version:  v2106                                 |
|   \\  /    A nd           | Website:  www.openfoam.com                      |
|    \\/     M anipulation  |                                                 |
\*---------------------------------------------------------------------------*/
FoamFile
{
    version     2.0;
    format      ascii;
    arch        "LSB;label=32;scalar=64";
    class       surfaceScalarField;
    location    "2";
    object      phi;
}
// * * * * * * * * * * * * * * * * * * * * * * * * * * * * * * * * * * * * * //

dimensions      [0 3 -1 0 0 0 0];

oriented        oriented;

internalField   nonuniform List<scalar> 
9440
(
3.88198e-06
1.02944e-08
3.87808e-06
-1.77827e-08
3.88009e-06
1.83017e-10
3.87693e-06
-3.55467e-08
3.87938e-06
2.9717e-09
3.87768e-06
-2.27881e-08
3.88045e-06
1.06912e-08
3.87972e-06
-2.51397e-08
3.88145e-06
-5.59308e-10
3.88024e-06
-3.21989e-08
3.88172e-06
-4.40904e-09
3.88096e-06
-2.91552e-08
3.88212e-06
-5.05496e-09
3.88155e-06
-2.51191e-08
3.88224e-06
-4.45848e-09
3.88213e-06
-2.16601e-08
3.8809e-06
-7.34723e-10
3.87539e-06
-1.44812e-08
3.86093e-06
1.68749e-08
2.73687e-08
3.83946e-06
4.18376e-06
1.23962e-08
4.18707e-06
-2.10908e-08
4.18408e-06
3.17361e-09
4.18592e-06
-3.73874e-08
4.18464e-06
4.2491e-09
4.18595e-06
-2.40978e-08
4.18641e-06
1.02337e-08
4.18629e-06
-2.50217e-08
4.18732e-06
-1.5889e-09
4.18486e-06
-2.97456e-08
4.18729e-06
-6.83292e-09
4.18436e-06
-2.62223e-08
4.18753e-06
-8.22698e-09
4.18508e-06
-2.26712e-08
4.18792e-06
-7.30014e-09
4.18265e-06
-1.63895e-08
4.18101e-06
9.01328e-10
4.1681e-06
-1.57129e-09
4.16294e-06
2.20369e-08
3.255e-08
4.15776e-06
4.51834e-06
1.41229e-08
4.52048e-06
-2.32399e-08
4.51934e-06
4.31758e-09
4.51918e-06
-3.72236e-08
4.52024e-06
3.18101e-09
4.51901e-06
-2.2864e-08
4.52246e-06
6.78151e-09
4.51942e-06
-2.19758e-08
4.52377e-06
-5.9398e-09
4.5184e-06
-2.43778e-08
4.52408e-06
-1.25136e-08
4.51795e-06
-2.00901e-08
4.52478e-06
-1.50556e-08
4.51996e-06
-1.78519e-08
4.5249e-06
-1.22421e-08
4.51895e-06
-1.04362e-08
4.52163e-06
-1.7777e-09
4.51375e-06
6.30543e-09
4.51373e-06
2.20555e-08
4.63703e-08
4.49991e-06
4.88109e-06
1.39789e-08
4.88084e-06
-2.29902e-08
4.88265e-06
2.50911e-09
4.87996e-06
-3.45338e-08
4.88345e-06
-3.09322e-10
4.88002e-06
-1.94368e-08
4.88535e-06
1.45671e-09
4.88119e-06
-1.78125e-08
4.88619e-06
-1.09408e-08
4.88203e-06
-2.02247e-08
4.8868e-06
-1.72759e-08
4.88524e-06
-1.85367e-08
4.88771e-06
-1.75241e-08
4.88587e-06
-1.6007e-08
4.88731e-06
-1.36843e-08
4.88528e-06
-8.40602e-09
4.88438e-06
-8.75141e-10
4.87984e-06
1.08431e-08
4.86926e-06
3.26361e-08
5.43003e-08
4.86133e-06
5.27149e-06
1.31312e-08
5.27002e-06
-2.15182e-08
5.27366e-06
-1.12541e-09
5.26954e-06
-3.04177e-08
5.27432e-06
-5.0921e-09
5.27012e-06
-1.52301e-08
5.27593e-06
-4.3522e-09
5.27233e-06
-1.42164e-08
5.27726e-06
-1.58705e-08
5.27619e-06
-1.91532e-08
5.2784e-06
-1.94927e-08
5.27767e-06
-1.7802e-08
5.2791e-06
-1.89515e-08
5.27859e-06
-1.54996e-08
5.27848e-06
-1.35724e-08
5.27652e-06
-6.44667e-09
5.27132e-06
4.32349e-09
5.25735e-06
2.4818e-08
5.2485e-06
4.14849e-08
5.51406e-08
5.24766e-06
5.69255e-06
1.20358e-08
5.69018e-06
-1.91435e-08
5.69512e-06
-6.06317e-09
5.69055e-06
-2.58493e-08
5.6953e-06
-9.84093e-09
5.69231e-06
-1.22399e-08
5.69691e-06
-8.95145e-09
5.69764e-06
-1.49443e-08
5.69923e-06
-1.74687e-08
5.69962e-06
-1.95413e-08
5.70051e-06
-2.03824e-08
5.70105e-06
-1.83381e-08
5.70115e-06
-1.90495e-08
5.7016e-06
-1.59524e-08
5.69922e-06
-1.11941e-08
5.69321e-06
-4.39968e-10
5.67884e-06
1.86924e-08
5.67032e-06
3.33468e-08
5.66744e-06
4.43594e-08
5.60225e-08
5.66656e-06
6.14712e-06
1.07819e-08
6.14418e-06
-1.61987e-08
6.14979e-06
-1.16729e-08
6.14592e-06
-2.19811e-08
6.14993e-06
-1.38518e-08
6.14979e-06
-1.20963e-08
6.15212e-06
-1.12788e-08
6.15393e-06
-1.67613e-08
6.15528e-06
-1.88185e-08
6.15608e-06
-2.03365e-08
6.15653e-06
-2.08383e-08
6.15744e-06
-1.92417e-08
6.1568e-06
-1.84133e-08
6.15497e-06
-1.41195e-08
6.14621e-06
-2.43176e-09
6.13304e-06
1.27213e-08
6.12573e-06
2.6009e-08
6.1223e-06
3.67726e-08
6.12036e-06
4.62998e-08
5.62047e-08
6.12018e-06
6.6379e-06
9.4391e-09
6.63497e-06
-1.32632e-08
6.6401e-06
-1.6799e-08
6.63907e-06
-2.09522e-08
6.64066e-06
-1.54483e-08
6.64216e-06
-1.35903e-08
6.64483e-06
-1.39571e-08
6.64654e-06
-1.84696e-08
6.64784e-06
-2.01189e-08
6.64857e-06
-2.10606e-08
6.64909e-06
-2.13649e-08
6.649e-06
-1.91524e-08
6.64656e-06
-1.59729e-08
6.63732e-06
-4.87253e-09
6.62448e-06
1.04077e-08
6.61729e-06
1.99077e-08
6.61369e-06
2.96138e-08
6.61167e-06
3.87935e-08
6.61039e-06
4.75743e-08
5.66281e-08
6.60997e-06
7.16782e-06
8.05016e-09
7.16513e-06
-1.05715e-08
7.16702e-06
-1.86904e-08
7.16979e-06
-2.37238e-08
7.17161e-06
-1.7267e-08
7.17375e-06
-1.57352e-08
7.17666e-06
-1.68664e-08
7.17835e-06
-2.0155e-08
7.17961e-06
-2.13815e-08
7.18e-06
-2.14521e-08
7.18046e-06
-2.18259e-08
7.17853e-06
-1.72206e-08
7.16847e-06
-5.91501e-09
7.15556e-06
8.03798e-09
7.14841e-06
1.75657e-08
7.14437e-06
2.39401e-08
7.14231e-06
3.16767e-08
7.14052e-06
4.0588e-08
7.13902e-06
4.90731e-08
5.68265e-08
7.13882e-06
7.74005e-06
6.60658e-09
7.73712e-06
-7.64293e-09
7.73871e-06
-2.02856e-08
7.74055e-06
-2.55594e-08
7.745e-06
-2.17172e-08
7.74799e-06
-1.87267e-08
7.75099e-06
-1.98632e-08
7.75247e-06
-2.1638e-08
7.75354e-06
-2.24491e-08
7.75315e-06
-2.10654e-08
7.75032e-06
-1.89947e-08
7.73831e-06
-5.20955e-09
7.72622e-06
6.17904e-09
7.721e-06
1.32524e-08
7.71812e-06
2.0449e-08
7.71558e-06
2.64769e-08
7.71316e-06
3.41006e-08
7.71128e-06
4.2464e-08
7.71011e-06
5.02432e-08
5.69662e-08
7.70997e-06
8.35788e-06
5.18787e-09
8.35486e-06
-4.62063e-09
8.35593e-06
-2.13548e-08
8.3567e-06
-2.63345e-08
8.36272e-06
-2.77351e-08
8.36792e-06
-2.39324e-08
8.37091e-06
-2.28503e-08
8.37244e-06
-2.31669e-08
8.37154e-06
-2.15439e-08
8.36806e-06
-1.75857e-08
8.35519e-06
-6.13272e-09
8.34457e-06
5.41204e-09
8.33939e-06
1.13619e-08
8.3369e-06
1.57445e-08
8.33474e-06
2.26018e-08
8.33186e-06
2.93603e-08
8.32955e-06
3.64134e-08
8.32785e-06
4.41577e-08
8.32686e-06
5.12377e-08
5.68419e-08
8.32698e-06
9.02509e-06
3.74948e-09
9.02198e-06
-1.51623e-09
9.0232e-06
-2.25718e-08
9.02451e-06
-2.76427e-08
9.03081e-06
-3.4037e-08
9.03659e-06
-2.97098e-08
9.04025e-06
-2.65192e-08
9.04022e-06
-2.31307e-08
9.03515e-06
-1.64804e-08
9.02217e-06
-4.60419e-09
9.01182e-06
4.2255e-09
9.00768e-06
9.55007e-09
9.00534e-06
1.36971e-08
9.00272e-06
1.83678e-08
9.00021e-06
2.51118e-08
8.9976e-06
3.19668e-08
8.99532e-06
3.87004e-08
8.99382e-06
4.56527e-08
8.99325e-06
5.18123e-08
5.67276e-08
8.99336e-06
9.74531e-06
2.54165e-09
9.74572e-06
-1.92489e-09
9.74388e-06
-2.07312e-08
9.74874e-06
-3.2503e-08
9.75226e-06
-3.75608e-08
9.75903e-06
-3.64743e-08
9.76184e-06
-2.93303e-08
9.75495e-06
-1.62411e-08
9.74237e-06
-3.90366e-09
9.73267e-06
5.09588e-09
9.72869e-06
8.20766e-09
9.72705e-06
1.1194e-08
9.72442e-06
1.63255e-08
9.72158e-06
2.12051e-08
9.719e-06
2.76883e-08
9.71655e-06
3.44226e-08
9.71444e-06
4.08089e-08
9.71333e-06
4.6763e-08
9.71286e-06
5.22829e-08
5.66009e-08
9.71298e-06
1.05233e-05
1.32074e-09
1.05289e-05
-7.47625e-09
1.05271e-05
-1.89795e-08
1.05313e-05
-3.66698e-08
1.05305e-05
-3.67595e-08
1.05316e-05
-3.757e-08
1.05218e-05
-1.95625e-08
1.05147e-05
-9.18382e-09
1.05099e-05
9.6478e-10
1.05082e-05
6.75212e-09
1.05061e-05
1.02788e-08
1.05035e-05
1.38074e-08
1.05008e-05
1.90271e-08
1.04979e-05
2.41201e-08
1.04954e-05
3.02343e-08
1.04932e-05
3.66238e-08
1.04914e-05
4.25508e-08
1.04904e-05
4.7804e-08
1.049e-05
5.26702e-08
5.63437e-08
1.04903e-05
1.13637e-05
-2.24999e-10
1.13676e-05
-1.13786e-08
1.13735e-05
-2.48196e-08
1.13722e-05
-3.53696e-08
1.13692e-05
-3.37505e-08
1.13604e-05
-2.88306e-08
1.13552e-05
-1.43151e-08
1.13501e-05
-4.09921e-09
1.13485e-05
2.57531e-09
1.13471e-05
8.09881e-09
1.13449e-05
1.25475e-08
1.13421e-05
1.6516e-08
1.13394e-05
2.17996e-08
1.13366e-05
2.69412e-08
1.13341e-05
3.27025e-08
1.13321e-05
3.85644e-08
1.13307e-05
4.39984e-08
1.13297e-05
4.87776e-08
1.13295e-05
5.29349e-08
5.5961e-08
1.13298e-05
1.22709e-05
-1.80556e-09
1.22751e-05
-1.55712e-08
1.22812e-05
-3.0911e-08
1.22807e-05
-3.48431e-08
1.22795e-05
-3.2556e-08
1.22691e-05
-1.84721e-08
1.22601e-05
-5.27483e-09
1.22562e-05
-2.32715e-10
1.22544e-05
4.39839e-09
1.22528e-05
9.73154e-09
1.22505e-05
1.48534e-08
1.22478e-05
1.91445e-08
1.22452e-05
2.44386e-08
1.22425e-05
2.9656e-08
1.22401e-05
3.50544e-08
1.22384e-05
4.02925e-08
1.22371e-05
4.52782e-08
1.22363e-05
4.95433e-08
1.22362e-05
5.30644e-08
5.54789e-08
1.22367e-05
1.32503e-05
-3.1328e-09
1.32548e-05
-2.01124e-08
1.32587e-05
-3.47694e-08
1.32577e-05
-3.38929e-08
1.32485e-05
-2.33436e-08
1.32422e-05
-1.21955e-08
1.32381e-05
-1.18117e-09
1.32351e-05
2.81465e-09
1.32329e-05
6.59537e-09
1.32309e-05
1.16622e-08
1.32286e-05
1.71792e-08
1.32261e-05
2.17106e-08
1.32236e-05
2.69289e-08
1.32211e-05
3.21433e-08
1.32189e-05
3.72715e-08
1.32173e-05
4.18804e-08
1.32162e-05
4.63436e-08
1.32157e-05
5.00775e-08
1.32157e-05
5.30424e-08
5.49016e-08
1.32163e-05
1.43078e-05
-4.17805e-09
1.43117e-05
-2.39968e-08
1.43124e-05
-3.55158e-08
1.431e-05
-3.14635e-08
1.43026e-05
-1.59617e-08
1.42973e-05
-6.90706e-09
1.42946e-05
1.55438e-09
1.42922e-05
5.17954e-09
1.42898e-05
9.02643e-09
1.42876e-05
1.38893e-08
1.42852e-05
1.95176e-08
1.42827e-05
2.4196e-08
1.42804e-05
2.92739e-08
1.42781e-05
3.43885e-08
1.42761e-05
3.92771e-08
1.42747e-05
4.33092e-08
1.42738e-05
4.72073e-08
1.42735e-05
5.03941e-08
1.42737e-05
5.28568e-08
5.42278e-08
1.42744e-05
1.54496e-05
-4.75651e-09
1.54477e-05
-2.2094e-08
1.54445e-05
-3.23011e-08
1.5442e-05
-2.90367e-08
1.54403e-05
-1.42718e-08
1.54382e-05
-4.73335e-09
1.54363e-05
3.42305e-09
1.54338e-05
7.66488e-09
1.54312e-05
1.16442e-08
1.54289e-05
1.62098e-08
1.54266e-05
2.18417e-08
1.54241e-05
2.66052e-08
1.54219e-05
3.14947e-08
1.54199e-05
3.63871e-08
1.54182e-05
4.0998e-08
1.5417e-05
4.45259e-08
1.54163e-05
4.78839e-08
1.54162e-05
5.05153e-08
1.54165e-05
5.25021e-08
5.34468e-08
1.54173e-05
1.66826e-05
-4.91565e-09
1.66801e-05
-1.95759e-08
1.66756e-05
-2.77901e-08
1.66725e-05
-2.59429e-08
1.66712e-05
-1.29931e-08
1.66704e-05
-3.87341e-09
1.6669e-05
4.76741e-09
1.66667e-05
9.96283e-09
1.6664e-05
1.43213e-08
1.66616e-05
1.86276e-08
1.66593e-05
2.41355e-08
1.6657e-05
2.89046e-08
1.66549e-05
3.35775e-08
1.66532e-05
3.81396e-08
1.66518e-05
4.23905e-08
1.66508e-05
4.5498e-08
1.66503e-05
4.83606e-08
1.66504e-05
5.04602e-08
1.66509e-05
5.19874e-08
5.25519e-08
1.66518e-05
1.80142e-05
-4.71533e-09
1.80107e-05
-1.6036e-08
1.80067e-05
-2.38767e-08
1.80038e-05
-2.29489e-08
1.80023e-05
-1.14918e-08
1.80012e-05
-2.83572e-09
1.8e-05
5.97862e-09
1.79981e-05
1.18471e-08
1.79956e-05
1.68734e-08
1.79931e-05
2.11206e-08
1.79908e-05
2.63724e-08
1.79887e-05
3.10476e-08
1.79868e-05
3.54794e-08
1.79853e-05
3.96522e-08
1.79842e-05
4.34541e-08
1.79835e-05
4.62146e-08
1.79832e-05
4.86287e-08
1.79835e-05
5.02364e-08
1.79841e-05
5.13239e-08
5.15382e-08
1.79851e-05
1.94522e-05
-4.27825e-09
1.94493e-05
-1.30625e-08
1.9445e-05
-1.95958e-08
1.94419e-05
-1.98869e-08
1.94402e-05
-9.71738e-09
1.94388e-05
-1.48104e-09
1.94375e-05
7.32911e-09
1.94358e-05
1.34606e-08
1.94335e-05
1.91627e-08
1.94311e-05
2.35556e-08
1.9429e-05
2.85197e-08
1.9427e-05
3.30029e-08
1.94253e-05
3.71671e-08
1.9424e-05
4.09352e-08
1.94233e-05
4.41971e-08
1.94228e-05
4.66757e-08
1.94228e-05
4.86671e-08
1.94232e-05
4.98259e-08
1.9424e-05
5.05059e-08
5.03946e-08
1.94252e-05
2.10052e-05
-3.67499e-09
2.10031e-05
-1.09507e-08
2.09988e-05
-1.53203e-08
2.09953e-05
-1.63672e-08
2.09931e-05
-7.57403e-09
2.09916e-05
1.16293e-10
2.099e-05
8.87671e-09
2.09884e-05
1.50444e-08
2.09865e-05
2.11259e-08
2.09842e-05
2.57788e-08
2.09822e-05
3.05243e-08
2.09805e-05
3.47492e-08
2.0979e-05
3.86083e-08
2.0978e-05
4.19272e-08
2.09776e-05
4.46841e-08
2.09774e-05
4.686e-08
2.09776e-05
4.84546e-08
2.09782e-05
4.92156e-08
2.09792e-05
4.95304e-08
4.91253e-08
2.09804e-05
2.26822e-05
-2.95481e-09
2.26801e-05
-8.89629e-09
2.26765e-05
-1.16971e-08
2.26729e-05
-1.27251e-08
2.26704e-05
-5.06198e-09
2.26685e-05
1.93843e-09
2.26669e-05
1.05535e-08
2.26652e-05
1.66682e-08
2.26635e-05
2.28607e-08
2.26616e-05
2.76817e-08
2.26598e-05
3.23075e-08
2.26583e-05
3.62601e-08
2.26571e-05
3.97813e-08
2.26565e-05
4.25516e-08
2.26562e-05
4.49824e-08
2.26563e-05
4.67565e-08
2.26568e-05
4.79805e-08
2.26576e-05
4.83969e-08
2.26588e-05
4.83975e-08
4.77327e-08
2.26601e-05
2.44932e-05
-2.21752e-09
2.44915e-05
-7.20582e-09
2.44882e-05
-8.38383e-09
2.44845e-05
-9.06859e-09
2.44817e-05
-2.24879e-09
2.44797e-05
3.95433e-09
2.44779e-05
1.23247e-08
2.44763e-05
1.83114e-08
2.44747e-05
2.44417e-08
2.44731e-05
2.92718e-08
2.44717e-05
3.37822e-08
2.44704e-05
3.74891e-08
2.44696e-05
4.05699e-08
2.44693e-05
4.29205e-08
2.44692e-05
4.50062e-08
2.44696e-05
4.63807e-08
2.44704e-05
4.72538e-08
2.44714e-05
4.73652e-08
2.44727e-05
4.7105e-08
4.62147e-08
2.44742e-05
2.64488e-05
-1.47255e-09
2.64471e-05
-5.4456e-09
2.64442e-05
-5.54184e-09
2.64408e-05
-5.65907e-09
2.64379e-05
6.56054e-10
2.64357e-05
6.12819e-09
2.64339e-05
1.41324e-08
2.64323e-05
1.99268e-08
2.64309e-05
2.5866e-08
2.64296e-05
3.05627e-08
2.64285e-05
3.48972e-08
2.64276e-05
3.83657e-08
2.64272e-05
4.09764e-08
2.64271e-05
4.30496e-08
2.64273e-05
4.47358e-08
2.6428e-05
4.57367e-08
2.64289e-05
4.62895e-08
2.64302e-05
4.61213e-08
2.64316e-05
4.56413e-08
4.45639e-08
2.64333e-05
2.85606e-05
-7.66611e-10
2.8559e-05
-3.80366e-09
2.85564e-05
-2.94921e-09
2.85532e-05
-2.49e-09
2.85504e-05
3.49913e-09
2.85481e-05
8.38255e-09
2.85464e-05
1.58942e-08
2.85448e-05
2.14629e-08
2.85436e-05
2.71098e-08
2.85426e-05
3.15677e-08
2.85418e-05
3.56372e-08
2.85414e-05
3.88258e-08
2.85413e-05
4.10784e-08
2.85415e-05
4.28431e-08
2.8542e-05
4.41651e-08
2.8543e-05
4.48102e-08
2.85442e-05
4.50772e-08
2.85456e-05
4.46591e-08
2.85473e-05
4.39934e-08
4.27727e-08
2.85491e-05
3.0841e-05
-1.11585e-10
3.08394e-05
-2.14853e-09
3.0837e-05
-5.77756e-10
3.08342e-05
3.14318e-10
3.08315e-05
6.15809e-09
3.08293e-05
1.05668e-08
3.08277e-05
1.75581e-08
3.08263e-05
2.28279e-08
3.08253e-05
2.81249e-08
3.08246e-05
3.22774e-08
3.08242e-05
3.601e-08
3.08242e-05
3.88649e-08
3.08244e-05
4.08389e-08
3.0825e-05
4.22793e-08
3.08259e-05
4.32815e-08
3.08271e-05
4.36025e-08
3.08285e-05
4.36191e-08
3.08302e-05
4.29923e-08
3.0832e-05
4.21733e-08
4.0847e-08
3.08339e-05
3.33035e-05
4.85608e-10
3.3302e-05
-6.60999e-10
3.32999e-05
1.58292e-09
3.32973e-05
2.85023e-09
3.32949e-05
8.56185e-09
3.32929e-05
1.26072e-08
3.32914e-05
1.90398e-08
3.32903e-05
2.39512e-08
3.32895e-05
2.8855e-08
3.32892e-05
3.26688e-08
3.32891e-05
3.6032e-08
3.32895e-05
3.8461e-08
3.32901e-05
4.02357e-08
3.32911e-05
4.13532e-08
3.32923e-05
4.20757e-08
3.32938e-05
4.21149e-08
3.32955e-05
4.19181e-08
3.32973e-05
4.11201e-08
3.32993e-05
4.01835e-08
3.87784e-08
3.33014e-05
3.59626e-05
1.03653e-09
3.59612e-05
6.73263e-10
3.59593e-05
3.54938e-09
3.59571e-05
5.0333e-09
3.59551e-05
1.06016e-08
3.59532e-05
1.44171e-08
3.5952e-05
2.02531e-08
3.59512e-05
2.47757e-08
3.59508e-05
2.92494e-08
3.59508e-05
3.26887e-08
3.59512e-05
3.5671e-08
3.5952e-05
3.76565e-08
3.59529e-05
3.92591e-08
3.59542e-05
4.00608e-08
3.59558e-05
4.05467e-08
3.59575e-05
4.03404e-08
3.59595e-05
3.99735e-08
3.59616e-05
3.90336e-08
3.59637e-05
3.80185e-08
3.65609e-08
3.59659e-05
3.8834e-05
1.51461e-09
3.88328e-05
1.80684e-09
3.88311e-05
5.26546e-09
3.88293e-05
6.89226e-09
3.88276e-05
1.2245e-08
3.88262e-05
1.58915e-08
3.88253e-05
2.11343e-08
3.88248e-05
2.5218e-08
3.88248e-05
2.9267e-08
3.88252e-05
3.22882e-08
3.8826e-05
3.48494e-08
3.88272e-05
3.65257e-08
3.88285e-05
3.78941e-08
3.88302e-05
3.83972e-08
3.8832e-05
3.86959e-08
3.88341e-05
3.82796e-08
3.88363e-05
3.77856e-08
3.88386e-05
3.67386e-08
3.88409e-05
3.5678e-08
3.42021e-08
3.88433e-05
4.19346e-05
1.92246e-09
4.19337e-05
2.76243e-09
4.19323e-05
6.61783e-09
4.19308e-05
8.41758e-09
4.19296e-05
1.34266e-08
4.19286e-05
1.6939e-08
4.1928e-05
2.16493e-08
4.1928e-05
2.52186e-08
4.19284e-05
2.88684e-08
4.19294e-05
3.13711e-08
4.19305e-05
3.36688e-08
4.19321e-05
3.49839e-08
4.19338e-05
3.61299e-08
4.19359e-05
3.636e-08
4.19381e-05
3.65058e-08
4.19404e-05
3.5932e-08
4.19429e-05
3.53447e-08
4.19454e-05
3.42382e-08
4.19479e-05
3.31574e-08
3.17028e-08
4.19504e-05
4.52828e-05
2.23485e-09
4.52821e-05
3.51814e-09
4.52811e-05
7.60499e-09
4.528e-05
9.53989e-09
4.52793e-05
1.41272e-08
4.52788e-05
1.74631e-08
4.52787e-05
2.17141e-08
4.52792e-05
2.47081e-08
4.52801e-05
2.79789e-08
4.52814e-05
3.00198e-08
4.5283e-05
3.2068e-08
4.5285e-05
3.30214e-08
4.52872e-05
3.39606e-08
4.52896e-05
3.39695e-08
4.52921e-05
3.3979e-08
4.52947e-05
3.33082e-08
4.52974e-05
3.26514e-08
4.53001e-05
3.15346e-08
4.53028e-05
3.04532e-08
2.90577e-08
4.53055e-05
4.88984e-05
2.44448e-09
4.88979e-05
4.02991e-09
4.88973e-05
8.17672e-09
4.88966e-05
1.02169e-08
4.88964e-05
1.43364e-08
4.88965e-05
1.74009e-08
4.88969e-05
2.12598e-08
4.8898e-05
2.36638e-08
4.88994e-05
2.66012e-08
4.89012e-05
2.82064e-08
4.89033e-05
2.99919e-08
4.89056e-05
3.06396e-08
4.89082e-05
3.13737e-08
4.8911e-05
3.12288e-08
4.89138e-05
3.1114e-08
4.89167e-05
3.04034e-08
4.89197e-05
2.97044e-08
4.89226e-05
2.86214e-08
4.89255e-05
2.75636e-08
2.62601e-08
4.89283e-05
5.28026e-05
2.52449e-09
5.28024e-05
4.28063e-09
5.28023e-05
8.26581e-09
5.28021e-05
1.04123e-08
5.28024e-05
1.40537e-08
5.2803e-05
1.67373e-08
5.28041e-05
2.02079e-08
5.28057e-05
2.20995e-08
5.28076e-05
2.46783e-08
5.28099e-05
2.58986e-08
5.28125e-05
2.74107e-08
5.28153e-05
2.7824e-08
5.28183e-05
2.83666e-08
5.28214e-05
2.81283e-08
5.28246e-05
2.79185e-08
5.28278e-05
2.72134e-08
5.2831e-05
2.65077e-08
5.28341e-05
2.54977e-08
5.28372e-05
2.44907e-08
2.33067e-08
5.28401e-05
5.70186e-05
2.4758e-09
5.70186e-05
4.27889e-09
5.70189e-05
7.98621e-09
5.70192e-05
1.00357e-08
5.70201e-05
1.31933e-08
5.70215e-05
1.53737e-08
5.70231e-05
1.85101e-08
5.70253e-05
1.9974e-08
5.70278e-05
2.21859e-08
5.70306e-05
2.30727e-08
5.70337e-05
2.43322e-08
5.70369e-05
2.45657e-08
5.70403e-05
2.49489e-08
5.70438e-05
2.466e-08
5.70473e-05
2.43942e-08
5.70508e-05
2.37319e-08
5.70543e-05
2.30555e-08
5.70576e-05
2.21573e-08
5.70609e-05
2.12338e-08
2.01907e-08
5.7064e-05
6.15711e-05
2.27022e-09
6.15713e-05
4.0696e-09
6.15722e-05
7.15431e-09
6.15731e-05
9.1052e-09
6.15746e-05
1.17204e-08
6.15766e-05
1.33895e-08
6.15789e-05
1.61698e-08
6.15816e-05
1.72534e-08
6.15847e-05
1.9115e-08
6.15881e-05
1.97094e-08
6.15917e-05
2.07294e-08
6.15954e-05
2.08538e-08
6.15992e-05
2.10979e-08
6.16031e-05
2.08189e-08
6.16069e-05
2.05197e-08
6.16107e-05
1.99478e-08
6.16145e-05
1.93133e-08
6.16181e-05
1.85644e-08
6.16215e-05
1.77629e-08
1.69467e-08
6.16248e-05
6.64872e-05
1.86272e-09
6.64878e-05
3.44127e-09
6.64891e-05
5.84141e-09
6.64907e-05
7.57774e-09
6.64926e-05
9.79743e-09
6.64952e-05
1.08315e-08
6.64981e-05
1.3232e-08
6.65014e-05
1.39333e-08
6.65051e-05
1.5436e-08
6.6509e-05
1.58129e-08
6.65131e-05
1.65868e-08
6.65173e-05
1.66844e-08
6.65216e-05
1.67991e-08
6.65258e-05
1.65941e-08
6.65301e-05
1.62856e-08
6.65341e-05
1.58619e-08
6.65382e-05
1.53051e-08
6.6542e-05
1.47295e-08
6.65457e-05
1.40374e-08
1.3367e-08
6.65493e-05
7.17956e-05
1.37941e-09
7.17966e-05
2.46404e-09
7.17982e-05
4.27301e-09
7.18004e-05
5.38091e-09
7.18029e-05
7.30275e-09
7.1806e-05
7.71086e-09
7.18096e-05
9.63341e-09
7.18135e-05
1.00618e-08
7.18178e-05
1.1153e-08
7.18222e-05
1.14145e-08
7.18268e-05
1.19111e-08
7.18315e-05
1.20345e-08
7.18362e-05
1.20609e-08
7.18409e-05
1.19491e-08
7.18455e-05
1.16873e-08
7.18499e-05
1.14108e-08
7.18542e-05
1.09966e-08
7.18583e-05
1.06034e-08
7.18623e-05
1.01088e-08
9.65063e-09
7.1866e-05
7.75281e-05
7.75294e-05
7.75314e-05
7.7534e-05
7.75373e-05
7.75409e-05
7.75453e-05
7.75498e-05
7.75548e-05
7.75598e-05
7.75651e-05
7.75704e-05
7.75756e-05
7.75808e-05
7.75859e-05
7.75908e-05
7.75955e-05
7.76e-05
7.76043e-05
7.76084e-05
3.7746e-06
6.48669e-08
3.68038e-06
9.42212e-08
3.57986e-06
1.00518e-07
3.48114e-06
9.87188e-08
3.38301e-06
9.81253e-08
3.28385e-06
9.91651e-08
3.18282e-06
1.01032e-07
3.07982e-06
1.03001e-07
2.97496e-06
1.04853e-07
2.86832e-06
1.06643e-07
2.75987e-06
1.0845e-07
2.6496e-06
1.10271e-07
2.53747e-06
1.12129e-07
2.42349e-06
1.13979e-07
2.30766e-06
1.15828e-07
2.19007e-06
1.17598e-07
2.07091e-06
1.19153e-07
1.95062e-06
1.20294e-07
1.8295e-06
1.21123e-07
1.70797e-06
1.21527e-07
1.58683e-06
1.21142e-07
1.46735e-06
1.1948e-07
1.35165e-06
1.15693e-07
1.24228e-06
1.09375e-07
1.14267e-06
9.96081e-08
1.05641e-06
8.62576e-08
9.86552e-07
6.98621e-08
9.34236e-07
5.23164e-08
8.97454e-07
3.67819e-08
8.72112e-07
2.53426e-08
8.54329e-07
1.77826e-08
8.41275e-07
1.30537e-08
8.30876e-07
1.03989e-08
8.21871e-07
9.00539e-09
8.13491e-07
8.3804e-09
8.05106e-07
8.38438e-09
7.96336e-07
8.76994e-09
7.8703e-07
9.30636e-09
7.77182e-07
9.84791e-09
7.6688e-07
1.03017e-08
7.56211e-07
1.0669e-08
7.45312e-07
1.08993e-08
7.34297e-07
1.10152e-08
7.23274e-07
1.10229e-08
7.12253e-07
1.10206e-08
7.01325e-07
1.09285e-08
6.90547e-07
1.07777e-08
6.79975e-07
1.05725e-08
6.69569e-07
1.04055e-08
6.59401e-07
1.01679e-08
6.4947e-07
9.93092e-09
6.39779e-07
9.6913e-09
6.30308e-07
9.47103e-09
6.21093e-07
9.21459e-09
6.12103e-07
8.99087e-09
6.03345e-07
8.75711e-09
5.94812e-07
8.533e-09
5.86524e-07
8.28897e-09
5.78445e-07
8.07857e-09
5.70582e-07
7.86334e-09
5.62907e-07
7.67458e-09
5.55459e-07
7.44834e-09
5.48191e-07
7.26762e-09
5.41119e-07
7.07175e-09
5.34215e-07
6.9041e-09
5.2751e-07
6.70509e-09
5.20943e-07
6.56707e-09
5.14547e-07
6.3962e-09
5.08284e-07
6.26323e-09
5.02174e-07
6.10968e-09
4.9615e-07
6.02351e-09
4.90268e-07
5.88259e-09
4.84454e-07
5.81418e-09
4.78782e-07
5.67132e-09
4.73189e-07
5.59332e-09
4.67767e-07
5.42171e-09
4.62413e-07
5.35409e-09
4.57197e-07
5.21577e-09
4.52022e-07
5.17583e-09
4.46946e-07
5.07565e-09
4.41893e-07
5.05291e-09
4.36959e-07
4.93375e-09
4.32092e-07
4.86709e-09
4.27373e-07
4.71955e-09
4.22702e-07
4.67109e-09
4.18161e-07
4.54106e-09
4.13614e-07
4.54644e-09
4.09191e-07
4.42289e-09
4.04748e-07
4.44283e-09
4.005e-07
4.2488e-09
3.96241e-07
4.2583e-09
3.92175e-07
4.06653e-09
3.88068e-07
4.10699e-09
3.84108e-07
3.96018e-09
3.80093e-07
4.0146e-09
3.76243e-07
3.84959e-09
3.72339e-07
3.90466e-09
3.68569e-07
3.77006e-09
3.64518e-07
4.05042e-09
4.61064e-09
4.1644e-06
5.82309e-08
4.16834e-06
9.02786e-08
4.16215e-06
1.06704e-07
4.1517e-06
1.09177e-07
4.14079e-06
1.09032e-07
4.12899e-06
1.10966e-07
4.1149e-06
1.15121e-07
4.09785e-06
1.20055e-07
4.07771e-06
1.24993e-07
4.05449e-06
1.29855e-07
4.02814e-06
1.34805e-07
3.99853e-06
1.39879e-07
3.96548e-06
1.45182e-07
3.92879e-06
1.50661e-07
3.8883e-06
1.56318e-07
3.84386e-06
1.62045e-07
3.7953e-06
1.67712e-07
3.74261e-06
1.7298e-07
3.68577e-06
1.77966e-07
3.62473e-06
1.82562e-07
3.55965e-06
1.86221e-07
3.49092e-06
1.88213e-07
3.41942e-06
1.87198e-07
3.34618e-06
1.82613e-07
3.27268e-06
1.7311e-07
3.20083e-06
1.581e-07
3.13267e-06
1.38028e-07
3.06967e-06
1.15314e-07
3.01268e-06
9.37687e-08
2.96129e-06
7.67347e-08
2.91397e-06
6.51005e-08
2.8693e-06
5.773e-08
2.82637e-06
5.33295e-08
2.78453e-06
5.08456e-08
2.74364e-06
4.92697e-08
2.70345e-06
4.85711e-08
2.66368e-06
4.85413e-08
2.62422e-06
4.87703e-08
2.58503e-06
4.90321e-08
2.54612e-06
4.92131e-08
2.50747e-06
4.93173e-08
2.46921e-06
4.91597e-08
2.43139e-06
4.88353e-08
2.39405e-06
4.83601e-08
2.35719e-06
4.78873e-08
2.32089e-06
4.72264e-08
2.28518e-06
4.64844e-08
2.25016e-06
4.5593e-08
2.21582e-06
4.47476e-08
2.18225e-06
4.37377e-08
2.14942e-06
4.27661e-08
2.11738e-06
4.17293e-08
2.0861e-06
4.07451e-08
2.05565e-06
3.96671e-08
2.02594e-06
3.86995e-08
1.99703e-06
3.76664e-08
1.96886e-06
3.67081e-08
1.94147e-06
3.56794e-08
1.91477e-06
3.4778e-08
1.88881e-06
3.38228e-08
1.8635e-06
3.29878e-08
1.83889e-06
3.20494e-08
1.81488e-06
3.12794e-08
1.79153e-06
3.04269e-08
1.7687e-06
2.97272e-08
1.74649e-06
2.89202e-08
1.72474e-06
2.83194e-08
1.70355e-06
2.75826e-08
1.68278e-06
2.70309e-08
1.66253e-06
2.63622e-08
1.6426e-06
2.59497e-08
1.62314e-06
2.53494e-08
1.60393e-06
2.5019e-08
1.58518e-06
2.4423e-08
1.56669e-06
2.40883e-08
1.54868e-06
2.34305e-08
1.5309e-06
2.31346e-08
1.51357e-06
2.25393e-08
1.4964e-06
2.23447e-08
1.47963e-06
2.18492e-08
1.46295e-06
2.17359e-08
1.44668e-06
2.11965e-08
1.43055e-06
2.1005e-08
1.41491e-06
2.03609e-08
1.39937e-06
2.02037e-08
1.38432e-06
1.95906e-08
1.36925e-06
1.96186e-08
1.35464e-06
1.90342e-08
1.33996e-06
1.91232e-08
1.32589e-06
1.83201e-08
1.31176e-06
1.83841e-08
1.29829e-06
1.75422e-08
1.28462e-06
1.7777e-08
1.27157e-06
1.7005e-08
1.25828e-06
1.73033e-08
1.24573e-06
1.64034e-08
1.23286e-06
1.67725e-08
1.22065e-06
1.59857e-08
1.20794e-06
1.67537e-08
1.78267e-08
4.49724e-06
6.09004e-08
4.50199e-06
8.55332e-08
4.50555e-06
1.0314e-07
4.50508e-06
1.09649e-07
4.50353e-06
1.10585e-07
4.50288e-06
1.11614e-07
4.50292e-06
1.15074e-07
4.50286e-06
1.20114e-07
4.50216e-06
1.25693e-07
4.50068e-06
1.31334e-07
4.49842e-06
1.37075e-07
4.49531e-06
1.42982e-07
4.49125e-06
1.49241e-07
4.48607e-06
1.55843e-07
4.47962e-06
1.6277e-07
4.47176e-06
1.69909e-07
4.46232e-06
1.77151e-07
4.45115e-06
1.84143e-07
4.43819e-06
1.90934e-07
4.42328e-06
1.97471e-07
4.40635e-06
2.0315e-07
4.38741e-06
2.07152e-07
4.36637e-06
2.08237e-07
4.34348e-06
2.05503e-07
4.31876e-06
1.9783e-07
4.29263e-06
1.84228e-07
4.26549e-06
1.65167e-07
4.23808e-06
1.42731e-07
4.21133e-06
1.2052e-07
4.18588e-06
1.02185e-07
4.16144e-06
8.95372e-08
4.13737e-06
8.18024e-08
4.11318e-06
7.75166e-08
4.08867e-06
7.53531e-08
4.06369e-06
7.4247e-08
4.03828e-06
7.39861e-08
4.01231e-06
7.45068e-08
3.98575e-06
7.53293e-08
3.95856e-06
7.62278e-08
3.93075e-06
7.70264e-08
3.90228e-06
7.77864e-08
3.87323e-06
7.82071e-08
3.84361e-06
7.84555e-08
3.81348e-06
7.84914e-08
3.78279e-06
7.85784e-08
3.75164e-06
7.83692e-08
3.72006e-06
7.80722e-08
3.68811e-06
7.75343e-08
3.6558e-06
7.70645e-08
3.62325e-06
7.62833e-08
3.59043e-06
7.55882e-08
3.55745e-06
7.4706e-08
3.52429e-06
7.39067e-08
3.49108e-06
7.28808e-08
3.45773e-06
7.20514e-08
3.42437e-06
7.10182e-08
3.39096e-06
7.01243e-08
3.35764e-06
6.89965e-08
3.32433e-06
6.80862e-08
3.29119e-06
6.69669e-08
3.25811e-06
6.60622e-08
3.22529e-06
6.48761e-08
3.19255e-06
6.40126e-08
3.16011e-06
6.28693e-08
3.12782e-06
6.20169e-08
3.09587e-06
6.08699e-08
3.06408e-06
6.01161e-08
3.03268e-06
5.8983e-08
3.00145e-06
5.82593e-08
2.97063e-06
5.71815e-08
2.93996e-06
5.66177e-08
2.90971e-06
5.55951e-08
2.87959e-06
5.5143e-08
2.84994e-06
5.40748e-08
2.82044e-06
5.35834e-08
2.79149e-06
5.23811e-08
2.76269e-06
5.1937e-08
2.73446e-06
5.0767e-08
2.70632e-06
5.04856e-08
2.67873e-06
4.94411e-08
2.65116e-06
4.93057e-08
2.6242e-06
4.81544e-08
2.59728e-06
4.79259e-08
2.57107e-06
4.65694e-08
2.54489e-06
4.63903e-08
2.51944e-06
4.50339e-08
2.49387e-06
4.5193e-08
2.46904e-06
4.38632e-08
2.44402e-06
4.41476e-08
2.41989e-06
4.24412e-08
2.39558e-06
4.26958e-08
2.37228e-06
4.08429e-08
2.34862e-06
4.14419e-08
2.32595e-06
3.96756e-08
2.30285e-06
4.03998e-08
2.2809e-06
3.83528e-08
2.25849e-06
3.91832e-08
2.23704e-06
3.74364e-08
2.21507e-06
3.8722e-08
3.97623e-08
4.85773e-06
6.45025e-08
4.86108e-06
8.21802e-08
4.86572e-06
9.85016e-08
4.86732e-06
1.08048e-07
4.86676e-06
1.11146e-07
4.86645e-06
1.11923e-07
4.86701e-06
1.14507e-07
4.86838e-06
1.18753e-07
4.86991e-06
1.2416e-07
4.87128e-06
1.29966e-07
4.87246e-06
1.35893e-07
4.87353e-06
1.41906e-07
4.87452e-06
1.48253e-07
4.87539e-06
1.54972e-07
4.87611e-06
1.62049e-07
4.87667e-06
1.69353e-07
4.87701e-06
1.76805e-07
4.87711e-06
1.84046e-07
4.87697e-06
1.91074e-07
4.8766e-06
1.97836e-07
4.87597e-06
2.03788e-07
4.87506e-06
2.08059e-07
4.87362e-06
2.09678e-07
4.8715e-06
2.0762e-07
4.86839e-06
2.00937e-07
4.864e-06
1.8862e-07
4.85798e-06
1.71192e-07
4.85047e-06
1.50235e-07
4.84205e-06
1.28943e-07
4.83355e-06
1.10688e-07
4.82528e-06
9.78039e-08
4.81707e-06
9.00161e-08
4.80863e-06
8.59576e-08
4.7999e-06
8.40774e-08
4.7907e-06
8.34493e-08
4.78116e-06
8.35268e-08
4.77125e-06
8.4413e-08
4.76098e-06
8.56016e-08
4.75024e-06
8.69675e-08
4.73906e-06
8.82099e-08
4.72733e-06
8.95089e-08
4.71511e-06
9.04301e-08
4.70231e-06
9.12578e-08
4.68898e-06
9.18211e-08
4.67502e-06
9.25338e-08
4.66052e-06
9.28776e-08
4.64538e-06
9.32105e-08
4.62969e-06
9.32251e-08
4.61334e-06
9.34069e-08
4.59648e-06
9.31495e-08
4.57897e-06
9.30931e-08
4.56095e-06
9.27285e-08
4.5423e-06
9.25597e-08
4.52316e-06
9.20149e-08
4.5034e-06
9.18196e-08
4.48316e-06
9.12559e-08
4.4623e-06
9.09825e-08
4.44101e-06
9.029e-08
4.4191e-06
8.9988e-08
4.39679e-06
8.92847e-08
4.37388e-06
8.8973e-08
4.35061e-06
8.81446e-08
4.32677e-06
8.78482e-08
4.30263e-06
8.70144e-08
4.27796e-06
8.66822e-08
4.25304e-06
8.57869e-08
4.2276e-06
8.55599e-08
4.20196e-06
8.4625e-08
4.17582e-06
8.44016e-08
4.14951e-06
8.34866e-08
4.12271e-06
8.34183e-08
4.0958e-06
8.25099e-08
4.06838e-06
8.25578e-08
4.04091e-06
8.1545e-08
4.01298e-06
8.15164e-08
3.98508e-06
8.02755e-08
3.95673e-06
8.0288e-08
3.9285e-06
7.90029e-08
3.89978e-06
7.9202e-08
3.87122e-06
7.80051e-08
3.84214e-06
7.8378e-08
3.81334e-06
7.69621e-08
3.78407e-06
7.71938e-08
3.7552e-06
7.54354e-08
3.72589e-06
7.56986e-08
3.69707e-06
7.38598e-08
3.66771e-06
7.4548e-08
3.63887e-06
7.27074e-08
3.60948e-06
7.35372e-08
3.58077e-06
7.11539e-08
3.55153e-06
7.19296e-08
3.52312e-06
6.92567e-08
3.49408e-06
7.04848e-08
3.46587e-06
6.78836e-08
3.43702e-06
6.92515e-08
3.40914e-06
6.62315e-08
3.38069e-06
6.76276e-08
3.353e-06
6.51274e-08
3.32475e-06
6.69736e-08
6.77422e-08
5.24732e-06
6.48345e-08
5.24959e-06
7.99116e-08
5.25395e-06
9.41432e-08
5.25655e-06
1.05451e-07
5.25708e-06
1.10613e-07
5.25677e-06
1.12239e-07
5.25699e-06
1.14284e-07
5.25817e-06
1.1757e-07
5.2599e-06
1.22432e-07
5.26165e-06
1.28212e-07
5.26327e-06
1.34272e-07
5.26487e-06
1.40314e-07
5.26646e-06
1.46658e-07
5.26812e-06
1.53316e-07
5.26983e-06
1.60339e-07
5.27165e-06
1.67531e-07
5.27356e-06
1.74899e-07
5.2756e-06
1.81999e-07
5.27781e-06
1.8887e-07
5.28032e-06
1.95326e-07
5.28308e-06
2.01026e-07
5.28615e-06
2.04993e-07
5.28927e-06
2.06554e-07
5.29231e-06