/*--------------------------------*- C++ -*----------------------------------*\
| =========                 |                                                 |
| \\      /  F ield         | OpenFOAM: The Open Source CFD Toolbox           |
|  \\    /   O peration     | Version:  v2106                                 |
|   \\  /    A nd           | Website:  www.openfoam.com                      |
|    \\/     M anipulation  |                                                 |
\*---------------------------------------------------------------------------*/
FoamFile
{
    version     2.0;
    format      ascii;
    arch        "LSB;label=32;scalar=64";
    class       volVectorField;
    location    "2";
    object      U;
}
// * * * * * * * * * * * * * * * * * * * * * * * * * * * * * * * * * * * * * //

dimensions      [0 1 -1 0 0 0 0];

internalField   nonuniform List<vector> 
4800
(
(0.96067 0.000145363 0)
(1.03889 -0.000221292 0)
(0.96439 1.84323e-05 0)
(1.03493 -0.000483119 0)
(0.96757 6.47339e-05 0)
(1.03154 -0.000362202 0)
(0.970952 0.000204948 0)
(1.02861 -0.000455028 0)
(0.974071 1.21246e-05 0)
(1.02537 -0.00069217 0)
(0.976613 -8.22201e-05 0)
(1.02224 -0.000737369 0)
(0.978993 -0.000121219 0)
(1.0192 -0.000745863 0)
(0.980957 -0.000136996 0)
(1.0162 -0.000731904 0)
(0.982462 -9.03889e-05 0)
(1.01308 -0.000727473 0)
(0.983172 0.000197095 0)
(1.00978 0.000482113 0)
(0.982997 7.99758e-05 0)
(1.01457 -0.000191098 0)
(0.987087 -1.07406e-05 0)
(1.01094 -0.000469975 0)
(0.990083 3.45185e-05 0)
(1.00817 -0.000363552 0)
(0.992856 0.000183647 0)
(1.00618 -0.000495352 0)
(0.994992 -1.84577e-05 0)
(1.00424 -0.000755074 0)
(0.996309 -9.24697e-05 0)
(1.00259 -0.000809914 0)
(0.997245 -0.000131612 0)
(1.00115 -0.000832971 0)
(0.997651 -0.000122551 0)
(0.999802 -0.000805038 0)
(0.997552 7.52203e-05 0)
(0.998334 -0.000453177 0)
(0.99695 0.00104013 0)
(0.996804 0.00163694 0)
(0.996083 0.000155289 0)
(1.00276 -0.000257116 0)
(0.99767 7.62385e-05 0)
(1.00159 -0.000479236 0)
(0.998421 7.36065e-05 0)
(1.00094 -0.000363801 0)
(0.99925 0.000140576 0)
(1.0008 -0.000398099 0)
(0.999753 -6.70808e-05 0)
(1.00045 -0.000507019 0)
(0.999813 -0.000260506 0)
(1.0001 -0.00049404 0)
(0.999717 -0.000358966 0)
(0.999655 -0.000514377 0)
(0.999316 -0.000377419 0)
(0.999072 -0.000406215 0)
(0.998672 -4.9734e-05 0)
(0.998245 0.000286845 0)
(0.997749 0.0011308 0)
(0.997252 0.00208655 0)
(0.999544 0.000139458 0)
(1.00032 -0.000262952 0)
(1 3.46393e-05 0)
(1.00015 -0.000497156 0)
(0.999987 2.15379e-05 0)
(1.00014 -0.000345636 0)
(1.00028 8.25471e-05 0)
(1.0004 -0.000377716 0)
(1.00044 -0.000176274 0)
(1.00034 -0.000497089 0)
(1.00033 -0.000356173 0)
(1.00016 -0.000496263 0)
(1.00012 -0.000463773 0)
(0.99982 -0.000516211 0)
(0.999666 -0.000466732 0)
(0.999317 -0.000332599 0)
(0.999028 -6.74122e-05 0)
(0.998578 0.000343972 0)
(0.998214 0.00110682 0)
(0.997782 0.00236787 0)
(1.00018 0.000139098 0)
(0.999949 -0.000248656 0)
(1.00042 2.18888e-05 0)
(0.999982 -0.000407674 0)
(1.0003 -3.17712e-05 0)
(1.00007 -0.000254307 0)
(1.00051 -3.73223e-05 0)
(1.00037 -0.000257983 0)
(1.00064 -0.000271741 0)
(1.00035 -0.000396133 0)
(1.00051 -0.000431627 0)
(1.0002 -0.000441267 0)
(1.0003 -0.000518257 0)
(0.999884 -0.000462709 0)
(0.999855 -0.000454041 0)
(0.999428 -0.00023413 0)
(0.999261 2.51841e-05 0)
(0.998802 0.000669962 0)
(0.99864 0.00164314 0)
(0.998168 0.00280547 0)
(1.0004 0.000122052 0)
(0.99978 -0.00021952 0)
(1.0006 -4.89437e-05 0)
(0.999853 -0.000359689 0)
(1.00047 -0.000123135 0)
(0.999967 -0.000189473 0)
(1.00066 -0.000127034 0)
(1.00027 -0.000246269 0)
(1.00076 -0.000341341 0)
(1.00027 -0.000407772 0)
(1.00063 -0.000486496 0)
(1.00014 -0.000451785 0)
(1.00041 -0.000542428 0)
(0.999856 -0.000465609 0)
(0.99998 -0.000401515 0)
(0.999457 -0.000170308 0)
(0.999475 0.000358883 0)
(0.999008 0.00121908 0)
(0.998973 0.00206193 0)
(0.998416 0.00293431 0)
(1.00051 0.000125718 0)
(0.999677 -0.000206771 0)
(1.00071 -0.000102296 0)
(0.999764 -0.000304076 0)
(1.00058 -0.000161971 0)
(0.99989 -0.000200328 0)
(1.00074 -0.000153735 0)
(1.0002 -0.000308715 0)
(1.00083 -0.000343403 0)
(1.00021 -0.000449077 0)
(1.0007 -0.000463495 0)
(1.0001 -0.000489646 0)
(1.00047 -0.000498925 0)
(0.999841 -0.000458776 0)
(1.00007 -0.000250924 0)
(0.999539 0.000144089 0)
(0.999716 0.000927637 0)
(0.999175 0.00159654 0)
(0.999214 0.00222244 0)
(0.99862 0.00292367 0)
(1.00049 8.53331e-05 0)
(0.999692 -0.000134318 0)
(1.0007 -0.000194264 0)
(0.999785 -0.000247791 0)
(1.00058 -0.000218361 0)
(0.999909 -0.000175321 0)
(1.00073 -0.000226896 0)
(1.00021 -0.000296758 0)
(1.00082 -0.000395025 0)
(1.00022 -0.000432771 0)
(1.00069 -0.000501342 0)
(1.00012 -0.000472549 0)
(1.00047 -0.000468246 0)
(0.999894 -0.000326447 0)
(1.00016 6.95177e-05 0)
(0.999717 0.000648169 0)
(0.999866 0.00119217 0)
(0.999341 0.0016941 0)
(0.999389 0.0022284 0)
(0.99885 0.00285965 0)
(1.00036 0.000101051 0)
(0.999814 -0.000146305 0)
(1.00059 -0.000201561 0)
(0.999904 -0.000318205 0)
(1.00049 -0.000208658 0)
(1.00002 -0.000237119 0)
(1.00064 -0.000233261 0)
(1.00029 -0.000372023 0)
(1.00073 -0.000394884 0)
(1.00031 -0.000470604 0)
(1.00062 -0.000481443 0)
(1.0002 -0.000472878 0)
(1.00044 -0.000350253 0)
(1.00004 1.24103e-05 0)
(1.00024 0.000537355 0)
(0.99988 0.000879508 0)
(0.999944 0.00125391 0)
(0.999534 0.00171292 0)
(0.999539 0.00223786 0)
(0.999109 0.00282991 0)
(1.0002 6.49442e-05 0)
(0.999959 -8.53963e-05 0)
(1.00045 -0.000241475 0)
(1.00005 -0.000305496 0)
(1.00038 -0.000294668 0)
(1.00014 -0.000235121 0)
(1.00053 -0.000314448 0)
(1.0004 -0.000363444 0)
(1.00064 -0.000444617 0)
(1.0004 -0.000431794 0)
(1.00055 -0.000496113 0)
(1.00031 -0.000323634 0)
(1.00046 -2.24227e-05 0)
(1.00023 0.000399985 0)
(1.00026 0.000708612 0)
(1.00002 0.000949639 0)
(1.00002 0.00129124 0)
(0.999745 0.00175338 0)
(0.999692 0.00227435 0)
(0.999373 0.0028328 0)
(1.00008 6.11608e-05 0)
(1.00006 -7.36997e-05 0)
(1.00034 -0.000234196 0)
(1.00015 -0.000347361 0)
(1.0003 -0.000337476 0)
(1.00024 -0.000332944 0)
(1.00045 -0.000338862 0)
(1.00047 -0.000403127 0)
(1.00058 -0.00042467 0)
(1.00047 -0.0004282 0)
(1.00052 -0.000327205 0)
(1.00044 1.21694e-05 0)
(1.00049 0.000330481 0)
(1.00033 0.000496223 0)
(1.00029 0.000724293 0)
(1.00015 0.00099572 0)
(1.00012 0.00135192 0)
(0.999948 0.00180911 0)
(0.999865 0.00231894 0)
(0.999626 0.00284911 0)
(1.00002 4.97693e-05 0)
(1.00011 -3.68412e-05 0)
(1.00027 -0.000273952 0)
(1.0002 -0.000352329 0)
(1.00026 -0.000432087 0)
(1.00029 -0.000421324 0)
(1.00042 -0.000408189 0)
(1.00051 -0.000411618 0)
(1.00056 -0.00039048 0)
(1.00052 -0.000291253 0)
(1.00057 -6.8688e-06 0)
(1.00054 0.00025149 0)
(1.00051 0.000374766 0)
(1.00041 0.000505711 0)
(1.00035 0.000759759 0)
(1.00028 0.00106957 0)
(1.00025 0.00143672 0)
(1.00015 0.001879 0)
(1.00006 0.00236884 0)
(0.999868 0.00286866 0)
(1 1.80425e-05 0)
(1.00012 1.44433e-05 0)
(1.00024 -0.000270661 0)
(1.00021 -0.000357077 0)
(1.00024 -0.000532424 0)
(1.00031 -0.000482757 0)
(1.00041 -0.000499755 0)
(1.00054 -0.000382188 0)
(1.00057 -0.000208429 0)
(1.0006 6.32132e-05 0)
(1.00061 0.000213647 0)
(1.00058 0.000290573 0)
(1.00054 0.000417655 0)
(1.00048 0.000585177 0)
(1.00044 0.000853103 0)
(1.0004 0.00117671 0)
(1.00039 0.00154317 0)
(1.00034 0.0019616 0)
(1.00027 0.0024217 0)
(1.0001 0.00288437 0)
(0.999994 2.75911e-05 0)
(1.00011 -6.6951e-05 0)
(1.00021 -0.000201708 0)
(1.0002 -0.000461988 0)
(1.00023 -0.000499961 0)
(1.00032 -0.000611917 0)
(1.00043 -0.000421072 0)
(1.00059 -0.000260298 0)
(1.00064 1.96256e-05 0)
(1.00064 0.000185381 0)
(1.00062 0.000222198 0)
(1.00061 0.000310505 0)
(1.00059 0.000475601 0)
(1.00056 0.000672284 0)
(1.00054 0.000939741 0)
(1.00054 0.00126264 0)
(1.00055 0.00162605 0)
(1.00053 0.00202442 0)
(1.00048 0.00245235 0)
(1.00032 0.00287688 0)
(0.999993 2.91921e-06 0)
(1.00011 -0.000110258 0)
(1.0002 -0.000241962 0)
(1.00019 -0.000463826 0)
(1.00023 -0.000497449 0)
(1.00035 -0.000521246 0)
(1.00049 -0.000294133 0)
(1.00065 -9.00891e-05 0)
(1.00067 3.4185e-05 0)
(1.00067 0.000134464 0)
(1.00066 0.000239252 0)
(1.00067 0.000365897 0)
(1.00066 0.000552606 0)
(1.00065 0.000763012 0)
(1.00066 0.00102514 0)
(1.00068 0.00133658 0)
(1.00072 0.00168996 0)
(1.00072 0.00206563 0)
(1.00069 0.00245929 0)
(1.00055 0.00284702 0)
(0.999993 -9.19821e-06 0)
(1.0001 -0.000133143 0)
(1.00018 -0.00034322 0)
(1.00019 -0.000444405 0)
(1.00025 -0.000482801 0)
(1.00039 -0.000363701 0)
(1.00054 -0.00014365 0)
(1.00069 -3.9514e-05 0)
(1.00072 6.16956e-05 0)
(1.00071 0.000191832 0)
(1.00071 0.00032794 0)
(1.00073 0.00046356 0)
(1.00074 0.000652314 0)
(1.00075 0.00087055 0)
(1.00078 0.00112911 0)
(1.00083 0.00142695 0)
(1.00089 0.00176369 0)
(1.00092 0.00211622 0)
(1.00091 0.00247993 0)
(1.00078 0.00283464 0)
(0.999994 -2.64803e-05 0)
(1.00009 -0.000195623 0)
(1.00018 -0.000406544 0)
(1.0002 -0.000438887 0)
(1.00028 -0.000411452 0)
(1.00045 -0.000235517 0)
(1.00059 -4.29434e-05 0)
(1.00073 3.47855e-05 0)
(1.00077 0.000117628 0)
(1.00077 0.000237383 0)
(1.00077 0.000381201 0)
(1.00081 0.000524046 0)
(1.00083 0.000715278 0)
(1.00086 0.000940055 0)
(1.00092 0.00119919 0)
(1.00099 0.00148524 0)
(1.00108 0.00180343 0)
(1.00112 0.00213582 0)
(1.00113 0.00247592 0)
(1.00101 0.00280306 0)
(0.999995 -3.3677e-05 0)
(1.00008 -0.000250258 0)
(1.00019 -0.000427566 0)
(1.00024 -0.000452108 0)
(1.00033 -0.000267401 0)
(1.00051 -0.000122347 0)
(1.00064 1.18232e-05 0)
(1.00077 7.61366e-05 0)
(1.00082 0.000154246 0)
(1.00083 0.000270699 0)
(1.00085 0.000423975 0)
(1.00089 0.000578663 0)
(1.00094 0.000772764 0)
(1.00099 0.00100049 0)
(1.00107 0.0012579 0)
(1.00116 0.00153235 0)
(1.00127 0.00183195 0)
(1.00134 0.00214396 0)
(1.00135 0.0024623 0)
(1.00125 0.00276429 0)
(0.999996 -4.5354e-05 0)
(1.00008 -0.000256521 0)
(1.00021 -0.000422228 0)
(1.00029 -0.000399341 0)
(1.0004 -0.00020246 0)
(1.00057 -7.52755e-05 0)
(1.0007 4.6969e-05 0)
(1.00082 0.000120865 0)
(1.00088 0.000207922 0)
(1.00091 0.000322855 0)
(1.00093 0.000481274 0)
(1.00099 0.000644516 0)
(1.00106 0.000839084 0)
(1.00113 0.00106495 0)
(1.00122 0.00131753 0)
(1.00134 0.00158206 0)
(1.00147 0.00186535 0)
(1.00156 0.00215662 0)
(1.00159 0.00245388 0)
(1.00148 0.00273262 0)
(0.999996 -4.81885e-05 0)
(1.00008 -0.000232598 0)
(1.00022 -0.000361178 0)
(1.00034 -0.000352019 0)
(1.00047 -0.000188792 0)
(1.00063 -6.82386e-05 0)
(1.00076 6.67182e-05 0)
(1.00088 0.000161701 0)
(1.00094 0.000261407 0)
(1.00099 0.000377682 0)
(1.00102 0.000536644 0)
(1.00109 0.000704558 0)
(1.00118 0.000897994 0)
(1.00127 0.00111977 0)
(1.00139 0.00136716 0)
(1.00153 0.00162287 0)
(1.00167 0.00189106 0)
(1.00178 0.00216099 0)
(1.00182 0.00243554 0)
(1.00172 0.00269128 0)
(0.999997 -4.85365e-05 0)
(1.00008 -0.000197183 0)
(1.00024 -0.000308197 0)
(1.00039 -0.00031199 0)
(1.00053 -0.000170008 0)
(1.00069 -5.35273e-05 0)
(1.00083 8.78193e-05 0)
(1.00094 0.000197577 0)
(1.00101 0.000312796 0)
(1.00107 0.000432959 0)
(1.00112 0.000590907 0)
(1.00121 0.000761994 0)
(1.00131 0.000954881 0)
(1.00142 0.00117134 0)
(1.00156 0.00141128 0)
(1.00172 0.00165632 0)
(1.00188 0.00190812 0)
(1.002 0.00215628 0)
(1.00205 0.00240743 0)
(1.00196 0.00264119 0)
(0.999998 -4.7495e-05 0)
(1.00008 -0.000158469 0)
(1.00026 -0.000251939 0)
(1.00043 -0.000273532 0)
(1.00059 -0.000150336 0)
(1.00076 -3.47592e-05 0)
(1.0009 0.000108623 0)
(1.00101 0.000227793 0)
(1.00109 0.000356881 0)
(1.00116 0.000483621 0)
(1.00123 0.00064192 0)
(1.00132 0.000814727 0)
(1.00145 0.00100573 0)
(1.00158 0.00121423 0)
(1.00174 0.00144338 0)
(1.0019 0.00167558 0)
(1.00208 0.00191153 0)
(1.00222 0.00213979 0)
(1.00228 0.00237007 0)
(1.00219 0.00258399 0)
(0.999999 -4.06162e-05 0)
(1.00008 -0.000130944 0)
(1.00027 -0.000203535 0)
(1.00047 -0.000232546 0)
(1.00065 -0.000122296 0)
(1.00083 -1.09932e-05 0)
(1.00097 0.00013374 0)
(1.00108 0.000256024 0)
(1.00117 0.000396187 0)
(1.00125 0.00053079 0)
(1.00133 0.000691401 0)
(1.00144 0.000862935 0)
(1.00158 0.00105023 0)
(1.00174 0.00124985 0)
(1.00191 0.00146722 0)
(1.00209 0.00168586 0)
(1.00228 0.00190742 0)
(1.00243 0.00211796 0)
(1.0025 0.00232901 0)
(1.00242 0.00252389 0)
(0.999999 -3.3666e-05 0)
(1.00008 -0.000109601 0)
(1.00028 -0.000157786 0)
(1.0005 -0.000184671 0)
(1.00071 -8.79504e-05 0)
(1.00089 1.54004e-05 0)
(1.00104 0.000160429 0)
(1.00116 0.000285356 0)
(1.00126 0.000432119 0)
(1.00134 0.000574027 0)
(1.00144 0.000735874 0)
(1.00157 0.000905095 0)
(1.00172 0.00108725 0)
(1.0019 0.00127816 0)
(1.00209 0.0014835 0)
(1.00228 0.00168796 0)
(1.00248 0.00189465 0)
(1.00264 0.00208859 0)
(1.00272 0.00228089 0)
(1.00264 0.00245697 0)
(0.999999 -2.6433e-05 0)
(1.00009 -8.86097e-05 0)
(1.00029 -0.00011764 0)
(1.00053 -0.000137992 0)
(1.00076 -5.05231e-05 0)
(1.00096 4.55309e-05 0)
(1.00111 0.000189829 0)
(1.00124 0.000315675 0)
(1.00135 0.000464725 0)
(1.00144 0.000610416 0)
(1.00155 0.000772318 0)
(1.00169 0.00093943 0)
(1.00187 0.00111648 0)
(1.00205 0.00129847 0)
(1.00226 0.00149125 0)
(1.00247 0.00168108 0)
(1.00268 0.0018719 0)
(1.00285 0.00204944 0)
(1.00293 0.00222432 0)
(1.00285 0.00238237 0)
(1 -1.86079e-05 0)
(1.00009 -6.98262e-05 0)
(1.00031 -8.26716e-05 0)
(1.00056 -9.27406e-05 0)
(1.00081 -9.81034e-06 0)
(1.00102 7.82059e-05 0)
(1.00119 0.000220345 0)
(1.00132 0.000345406 0)
(1.00144 0.000494643 0)
(1.00155 0.000640869 0)
(1.00167 0.000802104 0)
(1.00182 0.000966128 0)
(1.00201 0.00113737 0)
(1.00221 0.00130936 0)
(1.00243 0.00148823 0)
(1.00266 0.00166296 0)
(1.00287 0.00183786 0)
(1.00304 0.00199925 0)
(1.00313 0.00215868 0)
(1.00306 0.00230055 0)
(1 -1.12863e-05 0)
(1.0001 -5.09898e-05 0)
(1.00032 -5.02555e-05 0)
(1.00059 -5.0954e-05 0)
(1.00086 3.06962e-05 0)
(1.00109 0.00011238 0)
(1.00127 0.000251075 0)
(1.00141 0.000375418 0)
(1.00154 0.000522119 0)
(1.00165 0.000666307 0)
(1.00179 0.000823891 0)
(1.00195 0.000982896 0)
(1.00215 0.00114634 0)
(1.00237 0.00130809 0)
(1.0026 0.00147371 0)
(1.00284 0.00163389 0)
(1.00306 0.0017946 0)
(1.00324 0.00194101 0)
(1.00332 0.00208644 0)
(1.00326 0.00221404 0)
(1 -4.24716e-06 0)
(1.0001 -3.27067e-05 0)
(1.00033 -2.04338e-05 0)
(1.00062 -1.25699e-05 0)
(1.00091 6.97626e-05 0)
(1.00115 0.000147029 0)
(1.00134 0.000280315 0)
(1.00149 0.000402209 0)
(1.00163 0.000545307 0)
(1.00176 0.000685433 0)
(1.00191 0.000837438 0)
(1.00208 0.000989742 0)
(1.0023 0.00114472 0)
(1.00252 0.00129602 0)
(1.00277 0.00144975 0)
(1.00301 0.00159566 0)
(1.00324 0.00174275 0)
(1.00342 0.00187468 0)
(1.00351 0.00200609 0)
(1.00344 0.00212013 0)
(1 1.96222e-06 0)
(1.00011 -1.50466e-05 0)
(1.00035 6.89254e-06 0)
(1.00065 2.18342e-05 0)
(1.00095 0.000105535 0)
(1.00121 0.000179431 0)
(1.00142 0.000306819 0)
(1.00158 0.000424937 0)
(1.00173 0.000563031 0)
(1.00187 0.000698081 0)
(1.00203 0.000842681 0)
(1.00222 0.000986871 0)
(1.00244 0.00113284 0)
(1.00267 0.00127307 0)
(1.00293 0.00141491 0)
(1.00318 0.00154694 0)
(1.00341 0.00168031 0)
(1.0036 0.0017986 0)
(1.00369 0.0019166 0)
(1.00362 0.00201804 0)
(1 7.65924e-06 0)
(1.00011 6.29863e-07 0)
(1.00036 3.10619e-05 0)
(1.00068 5.20141e-05 0)
(1.001 0.000136829 0)
(1.00126 0.000208666 0)
(1.0015 0.000329134 0)
(1.00166 0.000443235 0)
(1.00183 0.000574452 0)
(1.00197 0.000703228 0)
(1.00215 0.000839281 0)
(1.00234 0.000974038 0)
(1.00257 0.00111053 0)
(1.00282 0.00123913 0)
(1.00308 0.00136922 0)
(1.00334 0.00148773 0)
(1.00357 0.00160835 0)
(1.00376 0.00171368 0)
(1.00386 0.00181985 0)
(1.00379 0.00190936 0)
(1 1.26497e-05 0)
(1.00012 1.40881e-05 0)
(1.00038 5.30993e-05 0)
(1.0007 7.78799e-05 0)
(1.00104 0.000162184 0)
(1.00132 0.000233783 0)
(1.00157 0.000345979 0)
(1.00174 0.000455309 0)
(1.00192 0.000579415 0)
(1.00208 0.000700359 0)
(1.00227 0.000828178 0)
(1.00247 0.000951751 0)
(1.00271 0.00107849 0)
(1.00296 0.00119464 0)
(1.00322 0.00131362 0)
(1.00349 0.00141873 0)
(1.00373 0.00152744 0)
(1.00392 0.00162015 0)
(1.00401 0.00171527 0)
(1.00395 0.00179353 0)
(1 1.72902e-05 0)
(1.00012 2.49905e-05 0)
(1.00039 7.13524e-05 0)
(1.00073 9.94938e-05 0)
(1.00108 0.00018172 0)
(1.00137 0.000253059 0)
(1.00163 0.000358197 0)
(1.00182 0.00045972 0)
(1.00201 0.000577101 0)
(1.00218 0.000688072 0)
(1.00238 0.000807842 0)
(1.00259 0.000918645 0)
(1.00283 0.00103543 0)
(1.00309 0.00113839 0)
(1.00336 0.0012468 0)
(1.00363 0.00133905 0)
(1.00387 0.00143636 0)
(1.00407 0.00151727 0)
(1.00416 0.00160183 0)
(1.00409 0.00167007 0)
(1 2.06835e-05 0)
(1.00013 3.44884e-05 0)
(1.0004 8.4879e-05 0)
(1.00075 0.000117035 0)
(1.00112 0.000194585 0)
(1.00142 0.000265399 0)
(1.0017 0.000363212 0)
(1.0019 0.000456257 0)
(1.0021 0.000565307 0)
(1.00228 0.000665407 0)
(1.00248 0.000776209 0)
(1.0027 0.000874172 0)
(1.00295 0.000980834 0)
(1.00321 0.00107105 0)
(1.00349 0.00116871 0)
(1.00376 0.00124946 0)
(1.004 0.00133557 0)
(1.0042 0.00140599 0)
(1.00429 0.00148018 0)
(1.00423 0.00153971 0)
(1 2.34133e-05 0)
(1.00013 4.1302e-05 0)
(1.00041 9.44973e-05 0)
(1.00077 0.000128541 0)
(1.00115 0.000201276 0)
(1.00146 0.000268305 0)
(1.00176 0.000360097 0)
(1.00197 0.000442928 0)
(1.00218 0.000544532 0)
(1.00237 0.000632048 0)
(1.00258 0.000733662 0)
(1.00281 0.000818695 0)
(1.00306 0.00091469 0)
(1.00333 0.000993032 0)
(1.0036 0.00107915 0)
(1.00388 0.00114955 0)
(1.00412 0.00122452 0)
(1.00432 0.00128571 0)
(1.00441 0.00134963 0)
(1.00434 0.00140151 0)
(1 2.48613e-05 0)
(1.00014 4.53174e-05 0)
(1.00043 9.80804e-05 0)
(1.00079 0.000134209 0)
(1.00118 0.000200563 0)
(1.00151 0.000263017 0)
(1.00181 0.00034752 0)
(1.00203 0.000419652 0)
(1.00226 0.000512189 0)
(1.00245 0.000587917 0)
(1.00267 0.000678575 0)
(1.0029 0.000751996 0)
(1.00316 0.00083622 0)
(1.00343 0.0009043 0)
(1.00371 0.000978672 0)
(1.00399 0.00103969 0)
(1.00423 0.00110401 0)
(1.00443 0.00115686 0)
(1.00452 0.00121115 0)
(1.00445 0.00125596 0)
(1 2.49234e-05 0)
(1.00014 4.69251e-05 0)
(1.00044 9.64807e-05 0)
(1.00081 0.000132936 0)
(1.00121 0.000192363 0)
(1.00155 0.000247556 0)
(1.00186 0.000324753 0)
(1.00209 0.000385244 0)
(1.00232 0.000467447 0)
(1.00252 0.000531747 0)
(1.00275 0.00061144 0)
(1.00299 0.000673555 0)
(1.00325 0.000746126 0)
(1.00352 0.000804149 0)
(1.0038 0.000867413 0)
(1.00408 0.000919385 0)
(1.00433 0.000973485 0)
(1.00452 0.00101872 0)
(1.00462 0.00106382 0)
(1.00454 0.00110235 0)
(1 2.40331e-05 0)
(1.00014 4.50967e-05 0)
(1.00045 9.11786e-05 0)
(1.00082 0.000124283 0)
(1.00124 0.000176673 0)
(1.00158 0.000221278 0)
(1.0019 0.000290812 0)
(1.00214 0.000339633 0)
(1.00238 0.000410357 0)
(1.00259 0.000462744 0)
(1.00282 0.00053076 0)
(1.00306 0.000581979 0)
(1.00333 0.000642208 0)
(1.0036 0.000690155 0)
(1.00389 0.000742085 0)
(1.00416 0.000785269 0)
(1.00441 0.000829193 0)
(1.00461 0.000867005 0)
(1.0047 0.000903328 0)
(1.00462 0.000935619 0)
(1 2.05023e-05 0)
(1.00014 4.18875e-05 0)
(1.00046 7.68457e-05 0)
(1.00083 0.000109881 0)
(1.00126 0.000150914 0)
(1.00161 0.000186102 0)
(1.00194 0.000244473 0)
(1.00219 0.000282006 0)
(1.00243 0.000339168 0)
(1.00264 0.000378596 0)
(1.00289 0.000432908 0)
(1.00312 0.000473218 0)
(1.00339 0.000519659 0)
(1.00367 0.000557685 0)
(1.00396 0.000596737 0)
(1.00423 0.000631643 0)
(1.00448 0.000664119 0)
(1.00467 0.000694942 0)
(1.00477 0.000721393 0)
(1.00469 0.000747667 0)
(1 1.70033e-05 0)
(1.00015 3.47652e-05 0)
(1.00047 6.41293e-05 0)
(1.00085 9.00665e-05 0)
(1.00127 0.000130668 0)
(1.00164 0.000152245 0)
(1.00197 0.000205895 0)
(1.00222 0.000234332 0)
(1.00247 0.000283246 0)
(1.00268 0.000315049 0)
(1.00293 0.000358704 0)
(1.00317 0.000393688 0)
(1.00345 0.000430213 0)
(1.00372 0.000463456 0)
(1.00401 0.000493759 0)
(1.00428 0.000524387 0)
(1.00454 0.000549988 0)
(1.00473 0.000577057 0)
(1.00482 0.000598427 0)
(1.00474 0.000621423 0)
(1 8.14396e-06 0)
(1.00015 1.46616e-05 0)
(1.00047 3.05197e-05 0)
(1.00086 3.94777e-05 0)
(1.00128 6.27168e-05 0)
(1.00166 6.95418e-05 0)
(1.002 9.66223e-05 0)
(1.00225 0.000109926 0)
(1.00251 0.000133105 0)
(1.00272 0.000149199 0)
(1.00298 0.000168872 0)
(1.00322 0.000186989 0)
(1.0035 0.000203717 0)
(1.00377 0.000220776 0)
(1.00406 0.000234962 0)
(1.00434 0.000250358 0)
(1.00459 0.000262807 0)
(1.00478 0.000276221 0)
(1.00488 0.000287062 0)
(1.0048 0.000298372 0)
(0.983853 0.00202816 0)
(0.959902 0.00331797 0)
(0.935714 0.00371729 0)
(0.910952 0.00368751 0)
(0.885684 0.00359717 0)
(0.860027 0.00356132 0)
(0.834028 0.0035594 0)
(0.807655 0.00355169 0)
(0.780865 0.00352445 0)
(0.753623 0.00348234 0)
(0.725916 0.00343316 0)
(0.697733 0.00338138 0)
(0.669066 0.00332898 0)
(0.639916 0.00327444 0)
(0.610288 0.00321924 0)
(0.580166 0.00316118 0)
(0.549599 0.00309285 0)
(0.518679 0.00300992 0)
(0.487534 0.00292195 0)
(0.45617 0.00282561 0)
(0.424796 0.00270688 0)
(0.393602 0.0025537 0)
(0.36306 0.00235112 0)
(0.333738 0.00206507 0)
(0.306483 0.00165477 0)
(0.282293 0.00115119 0)
(0.262085 0.000565287 0)
(0.246583 5.43714e-05 0)
(0.235563 -0.000287523 0)
(0.227952 -0.000451775 0)
(0.222564 -0.000506336 0)
(0.218652 -0.000483206 0)
(0.215643 -0.000447556 0)
(0.213135 -0.000399736 0)
(0.210908 -0.000344413 0)
(0.208754 -0.000287706 0)
(0.206547 -0.000235054 0)
(0.204212 -0.000188558 0)
(0.201748 -0.00014932 0)
(0.199144 -0.000117155 0)
(0.196444 -9.03714e-05 0)
(0.193655 -6.88e-05 0)
(0.190834 -5.19582e-05 0)
(0.187982 -3.87481e-05 0)
(0.185145 -2.74026e-05 0)
(0.182305 -1.85918e-05 0)
(0.179513 -1.12039e-05 0)
(0.176749 -4.91565e-06 0)
(0.174052 8.93105e-07 0)
(0.171388 5.05394e-06 0)
(0.168807 8.80102e-06 0)
(0.166263 1.21994e-05 0)
(0.163806 1.51137e-05 0)
(0.16138 1.71498e-05 0)
(0.159049 1.89832e-05 0)
(0.156741 2.03322e-05 0)
(0.154533 2.12575e-05 0)
(0.15234 2.18152e-05 0)
(0.150256 2.2267e-05 0)
(0.148171 2.24947e-05 0)
(0.1462 2.25055e-05 0)
(0.144215 2.21088e-05 0)
(0.142355 2.17785e-05 0)
(0.140465 2.12197e-05 0)
(0.138709 2.05625e-05 0)
(0.136904 1.97653e-05 0)
(0.135247 1.9231e-05 0)
(0.133517 1.85374e-05 0)
(0.131949 1.78697e-05 0)
(0.130284 1.71402e-05 0)
(0.128795 1.65893e-05 0)
(0.127178 1.58127e-05 0)
(0.125758 1.5327e-05 0)
(0.124181 1.4551e-05 0)
(0.122832 1.40158e-05 0)
(0.121299 1.31425e-05 0)
(0.120032 1.27295e-05 0)
(0.118537 1.21281e-05 0)
(0.117341 1.17827e-05 0)
(0.115862 1.13738e-05 0)
(0.114727 1.10492e-05 0)
(0.113251 1.06125e-05 0)
(0.112191 1.01273e-05 0)
(0.110731 9.69967e-06 0)
(0.109765 9.30083e-06 0)
(0.108311 8.92577e-06 0)
(0.107431 8.70141e-06 0)
(0.105954 8.38938e-06 0)
(0.105159 8.30358e-06 0)
(0.103656 7.77781e-06 0)
(0.102978 7.60128e-06 0)
(0.101446 7.11722e-06 0)
(0.100896 6.98251e-06 0)
(0.0992998 6.85465e-06 0)
(0.0988833 6.73362e-06 0)
(0.0971932 6.64123e-06 0)
(0.0969439 6.27694e-06 0)
(0.0951211 6.58608e-06 0)
(0.0950575 7.25326e-06 0)
(0.0929078 9.4587e-06 0)
(0.996386 0.0038445 0)
(0.995617 0.00581376 0)
(0.994469 0.00654055 0)
(0.992845 0.00650197 0)
(0.990706 0.00631545 0)
(0.988028 0.00624314 0)
(0.984817 0.00628435 0)
(0.981009 0.00636348 0)
(0.97657 0.00643673 0)
(0.971434 0.00649701 0)
(0.965577 0.00655139 0)
(0.958938 0.00660362 0)
(0.951499 0.00665718 0)
(0.943194 0.00670984 0)
(0.934006 0.00676115 0)
(0.923859 0.00680779 0)
(0.912749 0.00684325 0)
(0.900641 0.00685761 0)
(0.887567 0.00685683 0)
(0.87345 0.00683873 0)
(0.858343 0.00678865 0)
(0.84225 0.00668676 0)
(0.825349 0.00651688 0)
(0.807854 0.00624077 0)
(0.790112 0.00579281 0)
(0.772614 0.00516715 0)
(0.755874 0.00437749 0)
(0.740412 0.00353338 0)
(0.726441 0.00275258 0)
(0.713739 0.00213558 0)
(0.702005 0.00169752 0)
(0.690917 0.00140219 0)
(0.680371 0.00119869 0)
(0.670143 0.00104773 0)
(0.660242 0.000940149 0)
(0.650521 0.00087225 0)
(0.64099 0.00083135 0)
(0.631495 0.000803902 0)
(0.622141 0.000782334 0)
(0.612795 0.00076195 0)
(0.603569 0.000741305 0)
(0.594352 0.000717551 0)
(0.58531 0.000692412 0)
(0.576298 0.000665666 0)
(0.567473 0.000640449 0)
(0.558696 0.000613355 0)
(0.55014 0.000585479 0)
(0.541642 0.000556653 0)
(0.533402 0.000530673 0)
(0.525244 0.000503632 0)
(0.517364 0.000478079 0)
(0.509555 0.0004533 0)
(0.502057 0.000430575 0)
(0.494617 0.000407883 0)
(0.487505 0.000387579 0)
(0.480424 0.000367781 0)
(0.473696 0.000349545 0)
(0.466964 0.000331511 0)
(0.460609 0.000315617 0)
(0.454207 0.000300158 0)
(0.448209 0.000286469 0)
(0.442116 0.000272245 0)
(0.436455 0.000260205 0)
(0.430643 0.000248141 0)
(0.425299 0.000237704 0)
(0.419739 0.000226625 0)
(0.414685 0.000217808 0)
(0.409346 0.000208204 0)
(0.404566 0.000200295 0)
(0.39942 0.000192001 0)
(0.394891 0.000186017 0)
(0.3899 0.000178611 0)
(0.385592 0.000173442 0)
(0.380724 0.000166299 0)
(0.376636 0.000161161 0)
(0.371888 0.00015368 0)
(0.368032 0.00014916 0)
(0.363389 0.000142818 0)
(0.35976 0.000139346 0)
(0.355176 0.000134199 0)
(0.351757 0.000131299 0)
(0.347195 0.000125826 0)
(0.344005 0.000122069 0)
(0.339467 0.000116188 0)
(0.336552 0.000113131 0)
(0.332023 0.000108016 0)
(0.329383 0.000106324 0)
(0.324796 0.000101501 0)
(0.32243 0.000100045 0)
(0.317757 9.39636e-05 0)
(0.315739 9.25789e-05 0)
(0.310971 8.68522e-05 0)
(0.309342 8.62899e-05 0)
(0.304383 8.14164e-05 0)
(0.303176 8.11716e-05 0)
(0.297958 7.60926e-05 0)
(0.297271 7.62375e-05 0)
(0.291693 7.16018e-05 0)
(0.291562 7.56791e-05 0)
(0.285427 8.27526e-05 0)
(0.996894 0.00341381 0)
(0.996526 0.00471312 0)
(0.996297 0.00546465 0)
(0.996163 0.00561745 0)
(0.996146 0.00553219 0)
(0.996137 0.00548559 0)
(0.996162 0.0055593 0)
(0.996117 0.00570961 0)
(0.996025 0.00588228 0)
(0.995789 0.00604893 0)
(0.995443 0.00621109 0)
(0.994888 0.00636945 0)
(0.994158 0.00653361 0)
(0.993156 0.00670131 0)
(0.991912 0.00687424 0)
(0.99032 0.0070459 0)
(0.988419 0.00721292 0)
(0.986123 0.00735753 0)
(0.983473 0.00748778 0)
(0.980357 0.00760141 0)
(0.976817 0.00768095 0)
(0.972753 0.00770003 0)
(0.968253 0.00763565 0)
(0.963254 0.00744545 0)
(0.957906 0.00706562 0)
(0.952202 0.00646639 0)
(0.946406 0.00567971 0)
(0.940536 0.00478491 0)
(0.934875 0.00391899 0)
(0.929244 0.00321466 0)
(0.923805 0.00272879 0)
(0.918262 0.00241809 0)
(0.912858 0.00222812 0)
(0.907284 0.00210275 0)
(0.901819 0.00202157 0)
(0.896133 0.00197532 0)
(0.890528 0.00195515 0)
(0.88462 0.00194469 0)
(0.87878 0.00193432 0)
(0.872603 0.00191967 0)
(0.866493 0.00190194 0)
(0.860028 0.00187446 0)
(0.853662 0.00184062 0)
(0.846936 0.00180167 0)
(0.840333 0.00176296 0)
(0.833366 0.00171795 0)
(0.826563 0.00167108 0)
(0.819392 0.00162003 0)
(0.812424 0.00157043 0)
(0.8051 0.00151595 0)
(0.798025 0.00146369 0)
(0.790573 0.00140973 0)
(0.783434 0.00135804 0)
(0.775901 0.00130427 0)
(0.768736 0.00125483 0)
(0.761141 0.00120391 0)
(0.753983 0.00115616 0)
(0.746354 0.00110694 0)
(0.739242 0.00106238 0)
(0.731612 0.00101693 0)
(0.724581 0.000975762 0)
(0.716977 0.000932727 0)
(0.710059 0.000895211 0)
(0.70249 0.000855935 0)
(0.69571 0.00082173 0)
(0.688199 0.000785627 0)
(0.681576 0.000755442 0)
(0.674125 0.000722544 0)
(0.66769 0.000695265 0)
(0.6603 0.000665616 0)
(0.65406 0.000642834 0)
(0.646725 0.000616452 0)
(0.640684 0.000596921 0)
(0.63339 0.000571975 0)
(0.627574 0.000553621 0)
(0.620334 0.000528914 0)
(0.614771 0.000512461 0)
(0.607579 0.0004901 0)
(0.602293 0.000476765 0)
(0.59511 0.000457442 0)
(0.590105 0.000446603 0)
(0.582892 0.000427486 0)
(0.578206 0.000416225 0)
(0.570952 0.000396079 0)
(0.566642 0.000385994 0)
(0.559329 0.000367384 0)
(0.55542 0.000361278 0)
(0.547972 0.000343994 0)
(0.544479 0.00033934 0)
(0.536858 0.000319266 0)
(0.533858 0.000314614 0)
(0.526043 0.000294807 0)
(0.523612 0.000293676 0)
(0.51549 0.00027541 0)
(0.513674 0.000275391 0)
(0.505166 0.000255628 0)
(0.504089 0.000257385 0)
(0.495096 0.000240244 0)
(0.494764 0.000245621 0)
(0.48516 0.000253159 0)
(0.997466 0.00354192 0)
(0.997007 0.0045734 0)
(0.996713 0.00529392 0)
(0.996496 0.00564226 0)
(0.996559 0.0057124 0)
(0.996659 0.0057064 0)
(0.996947 0.00575124 0)
(0.997168 0.00587186 0)
(0.997512 0.00603731 0)
(0.997751 0.00621404 0)
(0.998099 0.00638831 0)
(0.99832 0.00655805 0)
(0.998636 0.00673008 0)
(0.998803 0.00690829 0)
(0.999051 0.00709103 0)
(0.999121 0.00727615 0)
(0.999268 0.00745709 0)
(0.999237 0.00762206 0)
(0.999298 0.00777082 0)
(0.999153 0.0079089 0)
(0.999085 0.00800873 0)
(0.998769 0.00804577 0)
(0.998532 0.00798569 0)
(0.997987 0.00779129 0)
(0.997498 0.00741199 0)
(0.996611 0.00682819 0)
(0.995759 0.00607044 0)
(0.994444 0.00521191 0)
(0.993215 0.00437393 0)
(0.991521 0.00367663 0)
(0.99 0.00318182 0)
(0.988033 0.00286817 0)
(0.986359 0.00268101 0)
(0.984273 0.00256813 0)
(0.982552 0.00249972 0)
(0.98038 0.00245659 0)
(0.978597 0.00243557 0)
(0.976294 0.00242221 0)
(0.974393 0.00241131 0)
(0.971907 0.00239728 0)
(0.969834 0.00238301 0)
(0.967123 0.00235855 0)
(0.964851 0.00233049 0)
(0.96189 0.00229664 0)
(0.959396 0.00226617 0)
(0.95618 0.00222835 0)
(0.953464 0.00218971 0)
(0.949977 0.00214505 0)
(0.947033 0.00210418 0)
(0.943284 0.00205551 0)
(0.940126 0.00201097 0)
(0.936103 0.00196211 0)
(0.932744 0.00191697 0)
(0.928457 0.00186633 0)
(0.924905 0.00182238 0)
(0.920349 0.00177372 0)
(0.91662 0.00173025 0)
(0.911795 0.00168124 0)
(0.907899 0.00163874 0)
(0.902811 0.00159133 0)
(0.898762 0.00155035 0)
(0.893417 0.00150278 0)
(0.889234 0.00146383 0)
(0.88364 0.00141872 0)
(0.879351 0.00138126 0)
(0.873523 0.00133746 0)
(0.869148 0.00130331 0)
(0.863085 0.00126099 0)
(0.858655 0.00122842 0)
(0.852357 0.00118844 0)
(0.847888 0.00115993 0)
(0.841362 0.00112231 0)
(0.836873 0.00109713 0)
(0.830115 0.00106013 0)
(0.825633 0.00103517 0)
(0.818654 0.000997039 0)
(0.814218 0.000973726 0)
(0.807016 0.00093706 0)
(0.802669 0.000917224 0)
(0.795221 0.000883749 0)
(0.790994 0.000867337 0)
(0.783278 0.000833401 0)
(0.779229 0.000816495 0)
(0.771244 0.000780575 0)
(0.767444 0.000765061 0)
(0.759185 0.000730175 0)
(0.755682 0.000720526 0)
(0.747101 0.00068751 0)
(0.743923 0.000680295 0)
(0.735001 0.000643409 0)
(0.732224 0.000636241 0)
(0.722947 0.000598483 0)
(0.720663 0.000596665 0)
(0.710946 0.000561376 0)
(0.709218 0.000561622 0)
(0.698998 0.00052382 0)
(0.697942 0.000525447 0)
(0.687165 0.000493838 0)
(0.686783 0.00049784 0)
(0.675369 0.000498042 0)
(0.997885 0.00376683 0)
(0.99731 0.00457819 0)
(0.997011 0.00520517 0)
(0.996654 0.00561742 0)
(0.99674 0.00578896 0)
(0.996762 0.00582224 0)
(0.997145 0.00583614 0)
(0.997322 0.00590028 0)
(0.997777 0.00602778 0)