/*--------------------------------*- C++ -*----------------------------------*\
| =========                 |                                                 |
| \\      /  F ield         | OpenFOAM: The Open Source CFD Toolbox           |
|  \\    /   O peration     | Version:  v2106                                 |
|   \\  /    A nd           | Website:  www.openfoam.com                      |
|    \\/     M anipulation  |                                                 |
\*---------------------------------------------------------------------------*/
FoamFile
{
    version     2.0;
    format      ascii;
    arch        "LSB;label=32;scalar=64";
    class       volScalarField;
    location    "1.3";
    object      p;
}
// * * * * * * * * * * * * * * * * * * * * * * * * * * * * * * * * * * * * * //

dimensions      [0 2 -2 0 0 0 0];

internalField   nonuniform List<scalar> 
4800
(
3.16327e-09
-1.91733e-05
-0.000184788
-0.000289829
-0.000356299
-0.000439442
-0.00048515
-0.000555229
-0.000585885
-0.000602826
-0.000579184
-0.000532604
-0.000443677
-0.000270965
-6.9424e-05
0.000201282
0.000566982
0.00107942
0.00173097
0.00243353
5.12183e-06
-2.62875e-05
-0.000178518
-0.000292356
-0.000353604
-0.000442308
-0.000481567
-0.000556833
-0.000581635
-0.000603402
-0.000574205
-0.000532972
-0.000432505
-0.000274473
-6.35996e-05
0.000194435
0.000570996
0.00102931
0.00152273
0.00204091
6.84394e-06
-2.49298e-05
-0.000177797
-0.000293464
-0.000352371
-0.000443686
-0.000479857
-0.000556607
-0.000580026
-0.000602157
-0.000572548
-0.000530242
-0.000430674
-0.000275584
-6.66321e-05
0.000178122
0.000516147
0.000913845
0.001326
0.00175358
1.20762e-05
-3.20656e-05
-0.00017412
-0.0002943
-0.000352128
-0.000443781
-0.000479887
-0.000554261
-0.000581756
-0.000597079
-0.000572803
-0.000525151
-0.000424316
-0.000273958
-7.83532e-05
0.000153079
0.000449152
0.000789207
0.00111803
0.00149589
1.50957e-05
-3.43325e-05
-0.000172827
-0.000294173
-0.000352895
-0.000442685
-0.000481259
-0.000550388
-0.000584067
-0.000592587
-0.000566788
-0.000519252
-0.000421385
-0.000276597
-9.85848e-05
0.000111299
0.00035796
0.000606509
0.000901675
0.00126346
1.97932e-05
-3.63713e-05
-0.000171598
-0.000292931
-0.000354987
-0.000440513
-0.000483495
-0.000547522
-0.000579477
-0.000588034
-0.000562894
-0.000514965
-0.000421422
-0.000284404
-0.000126419
4.65281e-05
0.000201733
0.00042011
0.000709968
0.00105898
2.31018e-05
-3.61809e-05
-0.000172227
-0.000290782
-0.000358674
-0.000437825
-0.000480932
-0.000545557
-0.000576743
-0.000582154
-0.000559536
-0.000511825
-0.000425081
-0.000301305
-0.000183902
-9.28566e-05
5.31056e-05
0.000269369
0.000541682
0.000863818
2.65133e-05
-3.36582e-05
-0.000173539
-0.000289436
-0.000359875
-0.00043943
-0.000477805
-0.000539862
-0.000572756
-0.000577275
-0.000556909
-0.000511427
-0.000437053
-0.00035058
-0.000300953
-0.000211567
-6.04413e-05
0.000138716
0.000374558
0.000663032
2.89842e-05
-2.8434e-05
-0.000173548
-0.000291192
-0.000358277
-0.000438009
-0.000475368
-0.000533665
-0.000567113
-0.000573694
-0.000558942
-0.000523312
-0.00047812
-0.000448565
-0.00039489
-0.000299086
-0.000163952
1.7167e-06
0.000199894
0.000456468
3.12937e-05
-2.36804e-05
-0.000169776
-0.000293395
-0.000358967
-0.000431561
-0.000471977
-0.000529115
-0.000562953
-0.000572464
-0.000567403
-0.000559916
-0.000567661
-0.000529023
-0.000458383
-0.000375946
-0.000274991
-0.000146062
1.70147e-05
0.000245569
3.2761e-05
-1.82013e-05
-0.000162228
-0.000292244
-0.00036183
-0.000427799
-0.000465039
-0.000524556
-0.000562246
-0.000577014
-0.000605406
-0.000640668
-0.000634997
-0.000581642
-0.000519239
-0.000462425
-0.000396675
-0.000304545
-0.000172975
3.17501e-05
3.3954e-05
-1.26665e-05
-0.000152414
-0.000285987
-0.00036319
-0.000428273
-0.000459863
-0.00052011
-0.000571972
-0.000611456
-0.000670345
-0.000693929
-0.000673177
-0.000632947
-0.000592246
-0.000562005
-0.000529287
-0.000471037
-0.000367649
-0.000182716
3.48568e-05
-6.36929e-06
-0.000141248
-0.000273993
-0.000356851
-0.000434397
-0.000464249
-0.000521025
-0.000600258
-0.000674024
-0.000720677
-0.000729439
-0.000714462
-0.000693867
-0.000678693
-0.000673538
-0.000669334
-0.000641767
-0.00056469
-0.000396084
3.56022e-05
1.12479e-06
-0.000128651
-0.00026118
-0.000340905
-0.000437937
-0.000487042
-0.00054873
-0.000645137
-0.000712524
-0.000750653
-0.000767677
-0.000766789
-0.000765723
-0.000774703
-0.000793833
-0.000815427
-0.000815719
-0.000762153
-0.00060825
3.76166e-05
8.94311e-06
-0.000112227
-0.000250112
-0.000326094
-0.000434319
-0.000524904
-0.000608809
-0.000689569
-0.000741536
-0.000779766
-0.000810393
-0.000827058
-0.000844914
-0.000876925
-0.000920795
-0.000967069
-0.000992105
-0.000959676
-0.000819394
4.12562e-05
1.70652e-05
-9.15814e-05
-0.00023876
-0.000326288
-0.000440351
-0.000556928
-0.000651386
-0.00073412
-0.000782994
-0.00081941
-0.000858824
-0.0008931
-0.000930576
-0.000984883
-0.00105342
-0.00112389
-0.0011711
-0.0011575
-0.00102954
4.93156e-05
2.46916e-05
-7.26004e-05
-0.000226463
-0.000337118
-0.000458466
-0.000583551
-0.000689913
-0.000778386
-0.000833048
-0.000869879
-0.000914587
-0.000965258
-0.00102295
-0.00109904
-0.00119125
-0.0012852
-0.00135317
-0.00135634
-0.00123912
6.09866e-05
3.50785e-05
-5.93583e-05
-0.000216698
-0.000350632
-0.000487977
-0.00061954
-0.000725995
-0.00081754
-0.000882756
-0.00092662
-0.000978177
-0.00104401
-0.00112201
-0.00121965
-0.00133431
-0.00145029
-0.00153773
-0.0015559
-0.00144774
7.58501e-05
4.8521e-05
-4.87138e-05
-0.000216329
-0.000368398
-0.000518213
-0.000656961
-0.000765945
-0.000858625
-0.000932948
-0.00098862
-0.00104991
-0.00113043
-0.00122842
-0.00134707
-0.00148268
-0.00161848
-0.00172356
-0.00175511
-0.00165462
9.33793e-05
6.36942e-05
-3.9821e-05
-0.000225144
-0.000395089
-0.000547713
-0.000692475
-0.000808537
-0.000904045
-0.000987104
-0.00105599
-0.00112917
-0.00122466
-0.00134212
-0.0014809
-0.00163564
-0.00178902
-0.00190968
-0.00195335
-0.00185968
0.000114148
7.85315e-05
-3.50302e-05
-0.000236964
-0.000429525
-0.000584001
-0.000726941
-0.000850917
-0.000953284
-0.00104593
-0.00112877
-0.00121528
-0.00132589
-0.00146207
-0.00162008
-0.00179244
-0.00196146
-0.00209599
-0.00215073
-0.00206342
0.000136536
9.22724e-05
-3.50101e-05
-0.000249888
-0.000464565
-0.000627912
-0.000767164
-0.000894432
-0.00100587
-0.00110974
-0.00120726
-0.00130831
-0.00143372
-0.00158744
-0.00176359
-0.00195237
-0.00213541
-0.00228218
-0.00234674
-0.00226523
0.000158819
0.000104521
-3.94646e-05
-0.00026448
-0.000497919
-0.000675963
-0.000815168
-0.000942757
-0.00106188
-0.00117822
-0.00129144
-0.00140825
-0.00154803
-0.00171769
-0.00191069
-0.00211468
-0.00231058
-0.00246795
-0.00254078
-0.00246411
0.000179636
0.00011517
-4.65411e-05
-0.000281428
-0.000530139
-0.000725784
-0.000870965
-0.000998662
-0.00112247
-0.00125085
-0.00138071
-0.00151445
-0.00166867
-0.00185241
-0.00206082
-0.00227864
-0.00248631
-0.00265288
-0.00273237
-0.00265938
0.000197658
0.000123705
-5.50021e-05
-0.000301152
-0.000562761
-0.000776286
-0.000932304
-0.00106271
-0.0011899
-0.00132805
-0.00147451
-0.0016258
-0.00179504
-0.00199162
-0.00221299
-0.00244316
-0.00266109
-0.00283591
-0.00292093
-0.00285078
0.000212242
0.000129955
-6.50389e-05
-0.00032362
-0.000596668
-0.000827538
-0.000997666
-0.00113415
-0.00126525
-0.00141074
-0.00157186
-0.0017413
-0.00192611
-0.00213514
-0.00236695
-0.00260734
-0.0028338
-0.00301556
-0.00310568
-0.00303805
0.000222919
0.000133136
-7.66694e-05
-0.000348936
-0.000632394
-0.000878876
-0.00106604
-0.0012123
-0.00134844
-0.00149993
-0.00167275
-0.00185947
-0.00206025
-0.00228154
-0.0025223
-0.0027706
-0.00300421
-0.00319149
-0.00328611
-0.0032209
0.000229472
0.000133
-9.01818e-05
-0.000376983
-0.000671557
-0.000931038
-0.00113515
-0.00129558
-0.00143886
-0.00159593
-0.00177803
-0.00197922
-0.00219562
-0.00242884
-0.00267817
-0.00293285
-0.00317225
-0.00336396
-0.00346182
-0.00339866
0.000231452
0.000128918
-0.000105959
-0.000406825
-0.000713604
-0.000985743
-0.00120494
-0.00138112
-0.00153519
-0.001698
-0.00188791
-0.002101
-0.00233113
-0.00257583
-0.00283321
-0.00309343
-0.00333709
-0.00353221
-0.00363198
-0.00357006
0.000228837
0.000120753
-0.000124355
-0.000438779
-0.000758295
-0.00104284
-0.00127615
-0.00146774
-0.00163504
-0.00180528
-0.00200138
-0.00222413
-0.00246604
-0.00272163
-0.00298658
-0.0032517
-0.00349817
-0.00369529
-0.00379611
-0.00373451
0.000221406
0.000108094
-0.000145782
-0.000472745
-0.000805556
-0.00110181
-0.00134795
-0.0015551
-0.00173629
-0.00191629
-0.00211865
-0.00234831
-0.00259927
-0.00286378
-0.00313634
-0.00340638
-0.00365528
-0.00385309
-0.00395402
-0.00389198
0.000209357
9.10346e-05
-0.000170648
-0.000507908
-0.000854518
-0.00116388
-0.00142028
-0.00164149
-0.00183737
-0.00202718
-0.00223779
-0.00247403
-0.00273151
-0.00300219
-0.00328062
-0.0035557
-0.00380693
-0.00400502
-0.00410512
-0.00404206
0.000192671
6.99547e-05
-0.00019894
-0.000545236
-0.000903148
-0.00122575
-0.001494
-0.00172762
-0.00193723
-0.00213697
-0.00235574
-0.00259889
-0.00286126
-0.00313661
-0.00341926
-0.00369839
-0.00395205
-0.0041503
-0.00424918
-0.00418436
0.000171163
4.51298e-05
-0.000229652
-0.00058399
-0.000951788
-0.00128641
-0.00156665
-0.00181234
-0.00203489
-0.00224515
-0.00247108
-0.00272026
-0.00298723
-0.00326646
-0.00355179
-0.00383307
-0.00408863
-0.00428738
-0.0043855
-0.00431882
0.000145695
1.64726e-05
-0.000262461
-0.000622335
-0.000999185
-0.00134587
-0.00163697
-0.00189328
-0.00212845
-0.00235012
-0.00258296
-0.00283617
-0.00310751
-0.00339023
-0.00367769
-0.00396009
-0.00421625
-0.00441515
-0.00451249
-0.00444425
0.000116682
-1.41467e-05
-0.000296476
-0.000660862
-0.00104271
-0.00140017
-0.00170496
-0.00197021
-0.0022158
-0.00244914
-0.00268916
-0.00294665
-0.00322061
-0.00350588
-0.00379521
-0.00407837
-0.00433442
-0.00453305
-0.00462964
-0.00455989
8.46791e-05
-4.70594e-05
-0.00032935
-0.000696567
-0.0010837
-0.00144804
-0.00176516
-0.00204154
-0.00229632
-0.00253998
-0.00278633
-0.00304842
-0.00332536
-0.00361263
-0.00390343
-0.00418616
-0.00444176
-0.00464003
-0.00473607
-0.004665
5.22897e-05
-8.04747e-05
-0.000361467
-0.000728208
-0.00111862
-0.00148969
-0.00181623
-0.00210318
-0.00236797
-0.00262066
-0.00287267
-0.0031379
-0.00341813
-0.00370715
-0.00399805
-0.00428014
-0.00453525
-0.00473323
-0.00482873
-0.00475675
2.2515e-05
-0.000108935
-0.000388519
-0.000755345
-0.00114573
-0.00152183
-0.00185827
-0.00215173
-0.00242463
-0.00268664
-0.00294363
-0.00321071
-0.00349272
-0.00378416
-0.00407569
-0.00435682
-0.00461029
-0.00480737
-0.00490246
-0.00482968
-5.75434e-06
-0.000138612
-0.000415155
-0.000781513
-0.00117271
-0.00155115
-0.00189733
-0.00219879
-0.00247725
-0.00274854
-0.00301215
-0.00328193
-0.00356549
-0.00385962
-0.00415367
-0.0044352
-0.00468805
-0.00488451
-0.00497997
-0.00490776
0.00318125
0.00335296
0.00323376
0.00311816
0.00301911
0.00287817
0.00266476
0.00238582
0.00206233
0.0017148
0.00135812
0.00099791
0.000636885
0.000277574
-7.98567e-05
-0.000441804
-0.000821154
-0.00123335
-0.0016912
-0.00220062
-0.00277013
-0.00340974
-0.00411933
-0.00488386
-0.00566579
-0.00639869
-0.00699611
-0.0073776
-0.00750647
-0.00740177
-0.0071363
-0.00679937
-0.00646005
-0.00616022
-0.00591788
-0.00573865
-0.00561801
-0.00554739
-0.00551869
-0.00552693
-0.00556381
-0.00561475
-0.00567479
-0.00574174
-0.00581517
-0.00589093
-0.00596662
-0.00604365
-0.00612079
-0.00620018
-0.00628079
-0.00636058
-0.00643981
-0.00652021
-0.0065987
-0.00667677
-0.0067548
-0.00683047
-0.00690998
-0.00698877
-0.00706827
-0.00715033
-0.00723174
-0.00731362
-0.00739419
-0.00747437
-0.00755466
-0.00763699
-0.0077228
-0.00780646
-0.00789304
-0.00797977
-0.0080648
-0.00815149
-0.00823916
-0.0083274
-0.00841614
-0.00850928
-0.00859935
-0.00868866
-0.00878212
-0.00886962
-0.00896251
-0.00905402
-0.00913862
-0.00923316
-0.00932326
-0.00940173
-0.00949438
-0.00958081
-0.00965513
-0.00974471
-0.00982676
-0.00989354
-0.00997259
-0.0100542
-0.0101141
-0.0101784
-0.0102412
-0.010288
0.00258136
0.00298053
0.00312772
0.0031021
0.00300122
0.00284515
0.00262785
0.00235284
0.00203402
0.00168915
0.0013336
0.000973942
0.00061329
0.000254483
-0.000102081
-0.000462854
-0.000840756
-0.00125114
-0.00170676
-0.0022133
-0.00277868
-0.0034124
-0.0041142
-0.00486759
-0.00563671
-0.00635831
-0.0069508
-0.00733694
-0.00747496
-0.007379
-0.00711987
-0.00678692
-0.00644958
-0.00615162
-0.00591079
-0.00573263
-0.00561267
-0.00554254
-0.00551416
-0.00552268
-0.00555984
-0.00561096
-0.00567122
-0.00573837
-0.00581199
-0.00588794
-0.00596382
-0.00604106
-0.00611837
-0.00619792
-0.00627869
-0.00635863
-0.00643797
-0.0065185
-0.0065971
-0.00667528
-0.00675342
-0.00682915
-0.00690877
-0.00698763
-0.00706718
-0.00714931
-0.00723076
-0.0073127
-0.00739331
-0.00747354
-0.00755386
-0.00763622
-0.00772207
-0.00780574
-0.00789235
-0.00797913
-0.00806417
-0.0081509
-0.00823859
-0.00832685
-0.0084156
-0.00850878
-0.00859887
-0.00868819
-0.0087817
-0.00886919
-0.00896211
-0.00905367
-0.00913824
-0.00923283
-0.00932297
-0.00940142
-0.00949411
-0.00958058
-0.00965487
-0.0097445
-0.00982658
-0.00989335
-0.00997241
-0.0100541
-0.010114
-0.0101782
-0.0102411
-0.0102879
0.00225521
0.00276035
0.00307161
0.00313623
0.00303719
0.00285276
0.00261382
0.00233064
0.00201062
0.00166541
0.00130862
0.000947395
0.000585196
0.000225234
-0.000131521
-0.000491609
-0.000868223
-0.00127687
-0.00172995
-0.0022329
-0.00279229
-0.00341599
-0.00410319
-0.00483472
-0.00557546
-0.00626866
-0.00684195
-0.00722431
-0.00737673
-0.00730744
-0.00707438
-0.00675988
-0.00643376
-0.00614229
-0.00590676
-0.00573258
-0.00561478
-0.0055454
-0.00551702
-0.00552506
-0.00556155
-0.00561203
-0.00567173
-0.00573839
-0.00581158
-0.00588719
-0.00596282
-0.0060399
-0.0061171
-0.00619658
-0.00627728
-0.00635717
-0.00643646
-0.00651695
-0.0065955
-0.00667366
-0.00675184
-0.00682763
-0.00690734
-0.00698629
-0.00706592
-0.00714808
-0.00722956
-0.00731152
-0.00739218
-0.00747249
-0.0075529
-0.00763533
-0.00772125
-0.00780495
-0.00789158
-0.00797838
-0.00806346
-0.00815024
-0.00823798
-0.00832627
-0.00841504
-0.00850825
-0.00859836
-0.00868769
-0.00878124
-0.00886874
-0.0089617
-0.00905328
-0.00913785
-0.00923249
-0.00932264
-0.00940109
-0.00949383
-0.00958032
-0.00965459
-0.00974427
-0.00982637
-0.00989314
-0.00997224
-0.0100539
-0.0101138
-0.0101781
-0.0102412
-0.0102879
0.00198112
0.00253024
0.00293911
0.0030922
0.00302925
0.00284059
0.00258515
0.00229139
0.00196902
0.00162493
0.00126916
0.000908175
0.00054555
0.000185242
-0.000171101
-0.000530169
-0.000905278
-0.00131151
-0.00176094
-0.00225855
-0.00280937
-0.00341895
-0.00408574
-0.00479083
-0.00549912
-0.00616032
-0.00671136
-0.00708922
-0.00725765
-0.00721866
-0.0070168
-0.00672564
-0.00641408
-0.00613123
-0.00590115
-0.00573048
-0.00561446
-0.00554582
-0.00551756
-0.00552506
-0.00556076
-0.00561051
-0.00566968
-0.005736
-0.00580883
-0.00588412
-0.00595962
-0.00603669
-0.00611398
-0.00619351
-0.00627426
-0.00635422
-0.00643357
-0.00651407
-0.00659263
-0.00667086
-0.00674915
-0.0068251
-0.00690502
-0.00698416
-0.00706398
-0.00714623
-0.00722773
-0.00730974
-0.00739046
-0.00747089
-0.00755144
-0.00763401
-0.00772003
-0.00780377
-0.00789041
-0.00797722
-0.00806233
-0.00814919
-0.00823699
-0.00832534
-0.00841412
-0.00850735
-0.00859747
-0.00868681
-0.00878039
-0.0088679
-0.00896087
-0.00905249
-0.00913707
-0.00923173
-0.00932191
-0.00940038
-0.00949317
-0.00957971
-0.00965397
-0.00974368
-0.00982583
-0.00989268
-0.00997179
-0.0100535
-0.0101135
-0.0101778
-0.0102412
-0.010288
0.00173754
0.00230161
0.00277318
0.00300781
0.00300285
0.00283046
0.00256793
0.00226243
0.00193283
0.00158631
0.00123005
0.000868747
0.000505433
0.000144819
-0.000210964
-0.000568887
-0.000942229
-0.00134549
-0.00179044
-0.00228152
-0.00282221
-0.00341554
-0.00405901
-0.00473517
-0.00541123
-0.00604161
-0.00657132
-0.00694478
-0.00712804
-0.00711846
-0.00694962
-0.00668514
-0.00639107
-0.00611845
-0.00589396
-0.00572644
-0.00561226
-0.00554476
-0.00551709
-0.00552439
-0.00555946
-0.00560862
-0.00566737
-0.0057334
-0.00580584
-0.00588076
-0.00595608
-0.00603312
-0.00611049
-0.00619002
-0.00627076
-0.00635079
-0.00643016
-0.0065106
-0.00658913
-0.00666736
-0.00674571
-0.00682183
-0.00690197
-0.00698137
-0.00706142
-0.00714374
-0.00722524
-0.00730728
-0.00738803
-0.00746864
-0.0075494
-0.00763215
-0.00771833
-0.00780211
-0.00788872
-0.00797554
-0.0080607
-0.00814763
-0.00823554
-0.00832397
-0.00841276
-0.00850599
-0.00859611
-0.00868546
-0.00877907
-0.0088666
-0.00895957
-0.00905126
-0.00913583
-0.00923047
-0.0093207
-0.00939923
-0.00949202
-0.00957866
-0.00965295
-0.00974261
-0.00982484
-0.0098919
-0.00997099
-0.0100527
-0.0101129
-0.0101773
-0.0102411
-0.010288
0.0015161
0.00208038
0.00259616
0.00289973
0.00295876
0.00281945
0.00256078
0.00224409
0.0019024
0.00154891
0.00118981
0.000827183
0.000462715
0.000101655
-0.000253241
-0.000609404
-0.000980309
-0.00137991
-0.00181944
-0.00230285
-0.00283215
-0.003408
-0.00402719
-0.00467438
-0.00531937
-0.00592046
-0.00642953
-0.00679795
-0.00699421
-0.00701217
-0.00687624
-0.0066402
-0.00636589
-0.00610497
-0.00588652
-0.00572206
-0.0056096
-0.00554325
-0.00551628
-0.00552352
-0.00555809
-0.00560674
-0.00566506
-0.00573074
-0.00580269
-0.00587719
-0.00595229
-0.00602926
-0.00610668
-0.00618618
-0.0062669
-0.00634699
-0.00642634
-0.00650668
-0.00658511
-0.00666331
-0.00674173
-0.00681802
-0.00689841
-0.00697813
-0.00705844
-0.00714081
-0.00722228
-0.00730434
-0.00738512
-0.00746594
-0.00754695
-0.00762988
-0.00771627
-0.00780009
-0.00788661
-0.00797344
-0.00805866
-0.00814569
-0.00823371
-0.00832222
-0.00841102
-0.00850422
-0.00859434
-0.00868371
-0.00877731
-0.00886489
-0.00895781
-0.00904958
-0.00913416
-0.00922872
-0.009319
-0.00939765
-0.00949036
-0.00957716
-0.00965151
-0.009741
-0.00982336
-0.00989077
-0.00996978
-0.0100514
-0.0101119
-0.0101765
-0.0102408
-0.0102878
0.00130036
0.00186343
0.00241194
0.00277304
0.00289455
0.00279786
0.00255338
0.00223034
0.0018755
0.00151175
0.00114735
0.000782218
0.000416052
5.42453e-05
-0.000299489
-0.000653054
-0.00102067
-0.00141582
-0.00184891
-0.00232344
-0.00284021
-0.00339772
-0.00399229
-0.00461059
-0.0052252
-0.00579821
-0.00628731
-0.00664982
-0.00685677
-0.00689993
-0.00679623
-0.0065901
-0.0063378
-0.00609026
-0.00587867
-0.00571735
-0.00560644
-0.00554111
-0.00551483
-0.00552208
-0.00555625
-0.00560446
-0.00566234
-0.00572766
-0.00579915
-0.00587321
-0.00594812
-0.00602499
-0.00610243
-0.00618193
-0.00626262
-0.00634276
-0.00642209
-0.00650231
-0.00658063
-0.00665881
-0.00673732
-0.00681382
-0.00689448
-0.00697456
-0.00705516
-0.00713757
-0.00721899
-0.0073011
-0.0073819
-0.00746297
-0.00754423
-0.00762736
-0.00771398
-0.00779785
-0.00788422
-0.00797106
-0.00805636
-0.00814349
-0.00823162
-0.00832024
-0.00840904
-0.00850218
-0.00859232
-0.00868168
-0.00877526
-0.00886291
-0.00895574
-0.00904759
-0.00913221
-0.00922664
-0.00931695
-0.00939576
-0.00948834
-0.00957532
-0.00964978
-0.00973899
-0.00982149
-0.00988938
-0.00996828
-0.0100497
-0.0101107
-0.0101755
-0.0102402
-0.0102874
0.00108135
0.00164615
0.00222258
0.00263263
0.00281125
0.00276181
0.00253974
0.0022173
0.00185129
0.00147528
0.00110298
0.000734036
0.00036571
2.81739e-06
-0.000349795
-0.000700032
-0.00106318
-0.0014527
-0.00187812
-0.00234254
-0.0028457
-0.00338433
-0.00395422
-0.00454382
-0.00512887
-0.00567499
-0.00614462
-0.0065003
-0.0067158
-0.00678181
-0.00670921
-0.00653383
-0.00630545
-0.00607315
-0.00586972
-0.00571209
-0.0056026
-0.00553807
-0.00551246
-0.00551975
-0.00555357
-0.00560145
-0.00565896
-0.005724
-0.0057951
-0.00586876
-0.00594347
-0.00602023
-0.00609773
-0.00617725
-0.00625793
-0.00633812
-0.00641743
-0.00649755
-0.00657576
-0.0066539
-0.00673253
-0.00680928
-0.00689023
-0.00697069
-0.00705164
-0.00713409
-0.00721541
-0.00729757
-0.00737841
-0.00745973
-0.00754131
-0.00762464
-0.00771146
-0.00779542
-0.00788164
-0.00796846
-0.00805383
-0.00814112
-0.00822936
-0.00831806
-0.00840686
-0.00849995
-0.0085901
-0.00867947
-0.00877299
-0.00886072
-0.00895345
-0.00904539
-0.00913004
-0.00922432
-0.00931467
-0.00939367
-0.00948608
-0.00957326
-0.00964785
-0.00973674
-0.00981937
-0.00988782
-0.00996658
-0.0100477
-0.0101094
-0.0101743
-0.0102395
-0.0102869
0.000858721
0.00142767
0.00203007
0.00248297
0.00271209
0.0027095
0.00251642
0.00220162
0.00182856
0.00144022
0.00105785
0.000683675
0.000312882
-5.1501e-05
-0.000403551
-0.000750124
-0.00110756
-0.00149007
-0.00190673
-0.00236003
-0.00284864
-0.00336793
-0.00391315
-0.00447433
-0.00503062
-0.0055509
-0.00600142
-0.00634944
-0.00657153
-0.00665795
-0.00661473
-0.0064704
-0.00626774
-0.00605277
-0.00585913
-0.00570605
-0.0055982
-0.00553425
-0.00550914
-0.00551647
-0.00554994
-0.00559761
-0.00565492
-0.00571979
-0.00579055
-0.00586384
-0.00593836
-0.00601506
-0.00609267
-0.00617222
-0.0062529
-0.00633315
-0.00641242
-0.00649244
-0.00657054
-0.00664864
-0.00672739
-0.00680442
-0.00688573
-0.00696656
-0.00704784
-0.00713039
-0.00721158
-0.00729375
-0.00737466
-0.00745626
-0.0075382
-0.00762174
-0.00770875
-0.00779279
-0.00787887
-0.00796567
-0.00805109
-0.00813854
-0.00822694
-0.0083157
-0.0084045
-0.00849754
-0.0085877
-0.00867708
-0.00877054
-0.00885835
-0.00895099
-0.009043
-0.0091277
-0.00922182
-0.00931219
-0.00939142
-0.00948364
-0.00957099
-0.00964577
-0.00973428
-0.00981705
-0.00988612
-0.00996476
-0.0100456
-0.0101079
-0.0101731
-0.0102386
-0.0102864
0.000634738
0.00120952
0.00183622
0.00232733
0.00260082
0.00264208
0.00248139
0.0021806
0.00180577
0.00140681
0.00101302
0.000632135
0.00025869
-0.000107491
-0.00045996
-0.000803261
-0.00115417
-0.00152825
-0.00193488
-0.00237592
-0.00284894
-0.00334841
-0.003869
-0.00440226
-0.00493067
-0.00542602
-0.00585769
-0.00619726
-0.00642423
-0.00652867
-0.00651299
-0.0063995
-0.00622401
-0.00602861
-0.0058467
-0.00569924
-0.00559346
-0.00552993
-0.00550498
-0.00551225
-0.00554534
-0.00559289
-0.00565015
-0.00571493
-0.00578543
-0.00585839
-0.00593281
-0.00600951
-0.00608726
-0.00616684
-0.0062475
-0.00632784
-0.00640706
-0.00648698
-0.00656497
-0.006643
-0.00672189
-0.00679921
-0.0068809
-0.00696216
-0.00704374
-0.0071264
-0.00720751
-0.00728967
-0.00737061
-0.00745253
-0.00753486
-0.00761862
-0.00770584
-0.00778993
-0.00787588
-0.0079627
-0.00804816
-0.00813575
-0.00822433
-0.00831319
-0.00840197
-0.00849493
-0.00858513
-0.00867453
-0.0087679
-0.00885581
-0.00894834
-0.00904043
-0.0091252
-0.00921913
-0.00930952
-0.009389
-0.00948104
-0.00956853
-0.00964356
-0.00973165
-0.00981454
-0.00988431
-0.00996282
-0.0100432
-0.0101063
-0.0101718
-0.0102376
-0.0102858
0.00041141
0.000993133
0.00164223
0.00216697
0.00247987
0.00256127
0.00243372
0.00215178
0.00178039
0.00137388
0.000968897
0.000580022
0.000203297
-0.000164814
-0.000518513
-0.000859382
-0.00120338
-0.00156743
-0.00196225
-0.00238976
-0.00284636
-0.00332564
-0.00382182
-0.00432783
-0.00482919
-0.00530039
-0.00571363
-0.00604431
-0.00627468
-0.006395
-0.00640488
-0.00632139
-0.00617391
-0.00599998
-0.00583179
-0.00569128
-0.00558818
-0.00552518
-0.00550008
-0.0055071
-0.00553978
-0.00558717
-0.00564446
-0.00570927
-0.00577963
-0.00585238
-0.00592679
-0.00600353
-0.00608144
-0.00616108
-0.00624173
-0.00632217
-0.00640135
-0.0064811
-0.006559
-0.00663696
-0.00671598
-0.00679364
-0.00687571
-0.00695745
-0.00703936
-0.00712209
-0.00720315
-0.00728531
-0.00736625
-0.00744849
-0.00753125
-0.00761526
-0.00770273
-0.00778687
-0.00787261
-0.0079595
-0.00804505
-0.00813272
-0.0082215
-0.00831048
-0.00839926
-0.00849211
-0.00858235
-0.0086718
-0.00876507
-0.00885309
-0.0089455
-0.00903764
-0.00912255
-0.00921625
-0.00930664
-0.00938642
-0.00947825
-0.00956588
-0.00964122
-0.00972884
-0.00981182
-0.00988237
-0.00996079
-0.0100407
-0.0101046
-0.0101704
-0.0102364
-0.0102851
0.000190156
0.000779121
0.00144839
0.00200258
0.00235046
0.00246826
0.00237309
0.00211319
0.00174967
0.00133936
0.000924857
0.000527563
0.000146678
-0.000223224
-0.000578193
-0.000917486
-0.00125479
-0.00160773
-0.001989
-0.00240164
-0.00284124
-0.00330009
-0.00377204
-0.00425143
-0.00472653
-0.00517443
-0.00556992
-0.00589146
-0.00612371
-0.00625767
-0.00629096
-0.00623604
-0.00611681
-0.00596591
-0.00581346
-0.00568168
-0.00558221
-0.00552006
-0.0054947
-0.00550113
-0.0055332
-0.0055804
-0.0056377
-0.00570267
-0.0057731
-0.00584577
-0.00592023
-0.00599705
-0.00607515
-0.00615494
-0.00623559
-0.0063161
-0.00639524
-0.00647479
-0.00655256
-0.00663049
-0.00670965
-0.00678765
-0.00687016
-0.0069524
-0.00703467
-0.00711745
-0.00719841
-0.00728065
-0.00736162
-0.00744413
-0.00752734
-0.00761164
-0.0076994
-0.00778362
-0.00786909
-0.00795602
-0.00804172
-0.0081295
-0.00821844
-0.00830755
-0.00839638
-0.0084891
-0.00857936
-0.00866887
-0.00876202
-0.00885017
-0.00894247
-0.00903462
-0.00911971
-0.00921318
-0.00930354
-0.00938366
-0.00947528
-0.00956301
-0.00963875
-0.00972584
-0.00980888
-0.00988031
-0.00995865
-0.010038
-0.0101028
-0.010169
-0.0102351
-0.0102842
-2.80836e-05
0.000567757
0.0012548
0.00183463
0.00221356
0.00236452
0.00230009
0.00206352
0.00171159
0.00130142
0.000880113
0.000475121
8.96836e-05
-0.00028201
-0.000637809
-0.000976107
-0.00130759
-0.0016492
-0.00201546
-0.00241172
-0.00283366
-0.00327206
-0.00372009
-0.00417347
-0.00462294
-0.00504832
-0.00542679
-0.00573899
-0.00597173
-0.00611725
-0.00617179
-0.00614377
-0.00605245
-0.00592575
-0.00579094
-0.00566977
-0.00557521
-0.00551439
-0.00548882
-0.00549439
-0.00552551
-0.00557246
-0.00562981
-0.00569498
-0.00576565
-0.00583835
-0.00591292
-0.00598993
-0.00606837
-0.00614837
-0.00622907
-0.00630963
-0.00638867
-0.00646806
-0.00654563
-0.0066235
-0.00670287
-0.0067812
-0.00686415
-0.00694696
-0.00702961
-0.00711248
-0.0071933
-0.00727562
-0.0073567
-0.00743946
-0.00752312
-0.00760772
-0.00769581
-0.00778016
-0.00786534
-0.00795224
-0.0080381
-0.00812608
-0.00821518
-0.00830436
-0.00839329
-0.00848589
-0.00857615
-0.00866572
-0.00875874
-0.00884704
-0.00893927
-0.00903138
-0.00911668
-0.00920989
-0.00930021
-0.00938072
-0.00947213
-0.00955992
-0.00963612
-0.00972264
-0.0098057
-0.00987812
-0.00995639
-0.0100351
-0.0101008
-0.0101676
-0.0102336
-0.0102832
-0.000244164
0.000358034
0.00106077
0.0016633
0.00206989
0.0022511
0.0022154
0.00200216
0.00166472
0.00125862
0.000833735
0.000422524
3.27013e-05
-0.00034094
-0.000697274
-0.00103449
-0.00136102
-0.0016919
-0.00204223
-0.00242048
-0.00282392
-0.00324193
-0.00366647
-0.00409419
-0.00451853
-0.00492225
-0.00528452
-0.00558737
-0.00581945
-0.00597453
-0.00604818
-0.00604522
-0.00598086
-0.0058789
-0.00576336
-0.00565464
-0.00556658
-0.00550795
-0.00548235
-0.00548711
-0.00551692
-0.00556335
-0.00562076
-0.00568604
-0.00575702
-0.00583
-0.00590484
-0.00598218
-0.00606108
-0.00614136
-0.00622211
-0.00630273
-0.00638162
-0.00646081
-0.00653821
-0.00661592
-0.00669556
-0.00677433
-0.0068577
-0.00694113
-0.00702421
-0.00710717
-0.00718785
-0.00727014
-0.0073514
-0.00743447
-0.0075186
-0.00760349
-0.00769191
-0.00777646
-0.00786136
-0.00794821
-0.00803418
-0.00812239
-0.00821172
-0.00830092
-0.00838993
-0.00848246
-0.00857275
-0.00866237
-0.0087552
-0.00884369
-0.00893586
-0.00902789
-0.00911345
-0.00920637
-0.00929663
-0.00937761
-0.00946877
-0.00955657
-0.00963335
-0.00971926
-0.00980227
-0.0098758
-0.00995399
-0.010032
-0.0100986
-0.010166
-0.0102319
-0.010282
-0.000458838
0.000149239
0.000866055
0.00148906
0.00192049
0.00212911
0.00212009
0.00192948
0.00160841
0.00120995
0.000784416
0.000368731
-2.47331e-05
-0.000399999
-0.000756539
-0.00109208
-0.00141396
-0.00173516
-0.00206952
-0.00242841
-0.00281221
-0.00320974
-0.00361123
-0.00401378
-0.00441367
-0.00479671
-0.0051435
-0.00543702
-0.00566752
-0.00583025
-0.00592078
-0.00594103
-0.00590234
-0.00582495
-0.00572987
-0.00563547
-0.00555568
-0.0055005
-0.00547525
-0.00547935
-0.00550769
-0.00555311
-0.00561052
-0.00567583
-0.0057471
-0.00582058
-0.00589592
-0.00597371
-0.00605311
-0.00613374
-0.00621462
-0.0062954
-0.00637412
-0.00645304
-0.00653026
-0.00660778
-0.00668769
-0.00676703
-0.00685085
-0.00693488
-0.0070184
-0.00710149
-0.00718203
-0.00726423
-0.00734569
-0.00742916
-0.00751383
-0.00759899
-0.00768769
-0.00777245
-0.00785711
-0.00794393
-0.00802996
-0.00811836
-0.00820802
-0.0082973
-0.00838633
-0.00847876
-0.00856911
-0.00865881
-0.00875139
-0.00884008
-0.00893225
-0.00902416
-0.00911001
-0.00920262
-0.00929277
-0.0093743
-0.00946521
-0.00955296
-0.00963041
-0.00971568
-0.00979856
-0.00987334
-0.00995146
-0.0100287
-0.0100963
-0.0101643
-0.01023
-0.0102807
-0.000672216
-5.86414e-05
0.00067099
0.00131249
0.00176637
0.00199972
0.00201537
0.00184631
0.00154222
0.00115413
0.000730971
0.000312917
-8.27781e-05
-0.000458617
-0.00081483
-0.00114831
-0.00146538
-0.00177781
-0.00209703
-0.00243576
-0.00279869
-0.00317553
-0.00355473
-0.00393305
-0.00430931
-0.00467226
-0.00500399
-0.00528825
-0.00551659
-0.00568527
-0.00579034
-0.00583186
-0.00581737
-0.00576383
-0.00568983
-0.00561151
-0.0055417
-0.00549147
-0.00546738
-0.00547091
-0.00549793
-0.00554191
-0.00559895
-0.00566433
-0.00573581
-0.00580987
-0.00588591
-0.00596432
-0.00604437
-0.00612552
-0.00620664
-0.00628762
-0.00636618
-0.00644472
-0.00652173
-0.00659908
-0.00667922
-0.00675917
-0.00684354
-0.00692817
-0.00701212
-0.00709537
-0.00717582
-0.00725792
-0.00733955
-0.00742345
-0.00750877
-0.00759418
-0.00768307
-0.00776812
-0.00785254
-0.00793939
-0.00802554
-0.00811403
-0.00820399
-0.00829345
-0.00838252
-0.00847474
-0.00856518
-0.00865505
-0.00874731
-0.0088362
-0.0089284
-0.00902018
-0.00910636
-0.00919862
-0.00928863
-0.00937077
-0.00946143
-0.00954907
-0.00962729
-0.0097119
-0.00979457
-0.00987075
-0.00994878
-0.0100251
-0.0100937
-0.0101626
-0.0102279
-0.0102791
-0.000884411
-0.000265502
0.000475937
0.00113403
0.00160824
0.00186393
0.00190215
0.00175342
0.00146613
0.00109038
0.000672763
0.000254461
-0.000142012
-0.000517027
-0.000872002
-0.00120312
-0.00151491
-0.00181866
-0.00212407
-0.00244302
-0.00278417
-0.00314006
-0.00349778
-0.00385295
-0.00420617
-0.00454917
-0.00486617
-0.00514148
-0.00536724
-0.00554039
-0.0056577