/*--------------------------------*- C++ -*----------------------------------*\
| =========                 |                                                 |
| \\      /  F ield         | OpenFOAM: The Open Source CFD Toolbox           |
|  \\    /   O peration     | Version:  v2106                                 |
|   \\  /    A nd           | Website:  www.openfoam.com                      |
|    \\/     M anipulation  |                                                 |
\*---------------------------------------------------------------------------*/
FoamFile
{
    version     2.0;
    format      ascii;
    arch        "LSB;label=32;scalar=64";
    class       surfaceScalarField;
    location    "1.3";
    object      phi;
}
// * * * * * * * * * * * * * * * * * * * * * * * * * * * * * * * * * * * * * //

dimensions      [0 3 -1 0 0 0 0];

oriented        oriented;

internalField   nonuniform List<scalar> 
9440
(
3.88156e-06
-7.94369e-09
3.87844e-06
4.06272e-09
3.88047e-06
-1.54568e-09
3.87801e-06
-1.32948e-08
3.88062e-06
1.63218e-08
3.87845e-06
-1.62633e-08
3.88024e-06
1.20719e-08
3.87928e-06
-1.64242e-08
3.88136e-06
1.31666e-08
3.8815e-06
-1.11985e-08
3.88325e-06
8.46869e-09
3.88314e-06
-1.68859e-08
3.88413e-06
-8.02277e-10
3.88361e-06
-1.8267e-08
3.88441e-06
-1.97414e-09
3.88429e-06
-1.65244e-08
3.88369e-06
-6.41544e-10
3.87857e-06
-1.01641e-08
3.86583e-06
1.49937e-08
3.07901e-08
3.84266e-06
4.18338e-06
-5.45957e-09
4.18765e-06
-2.11102e-10
4.1846e-06
1.49899e-09
4.18734e-06
-1.60315e-08
4.18609e-06
1.75727e-08
4.18726e-06
-1.74336e-08
4.18687e-06
1.24666e-08
4.18658e-06
-1.61373e-08
4.18771e-06
1.2037e-08
4.18656e-06
-1.00475e-08
4.18862e-06
6.41127e-09
4.18724e-06
-1.55075e-08
4.18915e-06
-2.71571e-09
4.18802e-06
-1.71328e-08
4.18988e-06
-3.83433e-09
4.186e-06
-1.26444e-08
4.18435e-06
1.00002e-09
4.17292e-06
1.27032e-09
4.16645e-06
2.14601e-08
3.74648e-08
4.15978e-06
4.51777e-06
-3.16598e-09
4.52075e-06
-3.19528e-09
4.5196e-06
2.64825e-09
4.52019e-06
-1.66152e-08
4.52166e-06
1.61002e-08
4.52014e-06
-1.59149e-08
4.52295e-06
9.65881e-09
4.51967e-06
-1.28589e-08
4.52403e-06
7.67307e-09
4.5199e-06
-5.91686e-09
4.52515e-06
1.1608e-09
4.52045e-06
-1.08068e-08
4.52611e-06
-8.37248e-09
4.52257e-06
-1.3589e-08
4.5265e-06
-7.76653e-09
4.52142e-06
-7.56325e-09
4.52205e-06
3.71937e-10
4.51313e-06
1.01811e-08
4.50486e-06
2.97386e-08
4.60094e-08
4.49631e-06
4.88049e-06
-2.7087e-09
4.88103e-06
-3.73339e-09
4.88273e-06
9.45376e-10
4.88088e-06
-1.47657e-08
4.88479e-06
1.21924e-08
4.88124e-06
-1.23672e-08
4.88581e-06
5.08751e-09
4.88163e-06
-8.67673e-09
4.88626e-06
3.04285e-09
4.88332e-06
-2.97988e-09
4.88795e-06
-3.4669e-09
4.88734e-06
-1.01985e-08
4.88953e-06
-1.05608e-08
4.88795e-06
-1.20103e-08
4.88909e-06
-8.90613e-09
4.88581e-06
-4.28136e-09
4.88309e-06
3.08836e-09
4.87172e-06
2.1552e-08
4.86315e-06
3.83117e-08
5.09214e-08
4.85824e-06
5.27088e-06
-2.94299e-09
5.27024e-06
-3.09029e-09
5.27365e-06
-2.46651e-09
5.27058e-06
-1.16919e-08
5.27567e-06
7.09745e-09
5.27148e-06
-8.17869e-09
5.27622e-06
3.46955e-10
5.27286e-06
-5.31512e-09
5.27673e-06
-8.21644e-10
5.2775e-06
-3.74987e-09
5.27961e-06
-5.57667e-09
5.27984e-06
-1.04304e-08
5.28107e-06
-1.17904e-08
5.28038e-06
-1.13222e-08
5.28005e-06
-8.57968e-09
5.27586e-06
-9.34316e-11
5.26466e-06
1.42908e-08
5.2548e-06
3.14174e-08
5.25066e-06
4.24514e-08
5.35487e-08
5.24803e-06
5.69193e-06
-3.41283e-09
5.69043e-06
-1.59401e-09
5.69506e-06
-7.0914e-09
5.69164e-06
-8.26964e-09
5.69672e-06
2.01551e-09
5.69335e-06
-4.81532e-09
5.69707e-06
-3.37325e-09
5.69675e-06
-4.98953e-09
5.69893e-06
-3.00158e-09
5.70032e-06
-5.13778e-09
5.70237e-06
-7.62895e-09
5.70272e-06
-1.07856e-08
5.70351e-06
-1.25721e-08
5.70233e-06
-1.01459e-08
5.69827e-06
-4.51714e-09
5.68708e-06
1.10912e-08
5.67636e-06
2.50106e-08
5.67253e-06
3.52455e-08
5.66981e-06
4.51719e-08
5.47999e-08
5.66856e-06
6.14645e-06
-3.98964e-09
6.14451e-06
3.45831e-10
6.14934e-06
-1.19208e-08
6.14718e-06
-6.10934e-09
6.15026e-06
-1.06952e-09
6.15015e-06
-4.70484e-09
6.1504e-06
-3.62221e-09
6.15287e-06
-7.45875e-09
6.15518e-06
-5.31333e-09
6.15684e-06
-6.79404e-09
6.15842e-06
-9.2126e-09
6.159e-06
-1.13656e-08
6.15807e-06
-1.16413e-08
6.15354e-06
-5.61805e-09
6.14174e-06
7.28567e-09
6.1322e-06
2.06258e-08
6.12779e-06
2.94204e-08
6.12503e-06
3.80118e-08
6.12329e-06
4.69115e-08
5.5653e-08
6.12244e-06
6.63719e-06
-4.61653e-09
6.63522e-06
2.31608e-09
6.63895e-06
-1.56547e-08
6.63922e-06
-6.37488e-09
6.63953e-06
-1.38157e-09
6.64236e-06
-7.53593e-09
6.64359e-06
-4.85503e-09
6.64515e-06
-9.01024e-09
6.64772e-06
-7.88886e-09
6.64967e-06
-8.74506e-09
6.65054e-06
-1.00759e-08
6.64976e-06
-1.05927e-08
6.64494e-06
-6.82173e-09
6.63373e-06
5.5924e-09
6.62398e-06
1.70401e-08
6.61966e-06
2.49465e-08
6.61674e-06
3.23394e-08
6.61465e-06
4.01045e-08
6.61295e-06
4.86065e-08
5.63156e-08
6.61229e-06
7.16701e-06
-5.19209e-09
7.16548e-06
3.83883e-09
7.16591e-06
-1.60796e-08
7.16996e-06
-1.04298e-08
7.17004e-06
-1.45901e-09
7.17293e-06
-1.04298e-08
7.17583e-06
-7.74596e-09
7.17756e-06
-1.07406e-08
7.17935e-06
-9.68773e-09
7.181e-06
-1.0392e-08
7.18148e-06
-1.05542e-08
7.17746e-06
-6.56971e-09
7.1662e-06
4.43625e-09
7.15565e-06
1.6141e-08
7.15052e-06
2.21693e-08
7.14774e-06
2.77297e-08
7.14544e-06
3.46323e-08
7.14317e-06
4.23788e-08
7.14177e-06
5.00047e-08
5.67598e-08
7.14133e-06
7.73916e-06
-5.74893e-09
7.73787e-06
5.12481e-09
7.73752e-06
-1.57279e-08
7.74116e-06
-1.40691e-08
7.74514e-06
-5.43787e-09
7.74605e-06
-1.13411e-08
7.74917e-06
-1.08663e-08
7.75148e-06
-1.30496e-08
7.75348e-06
-1.16846e-08
7.75329e-06
-1.0207e-08
7.74828e-06
-5.53654e-09
7.73719e-06
4.51486e-09
7.72787e-06
1.37542e-08
7.72414e-06
1.98774e-08
7.72127e-06
2.50318e-08
7.71862e-06
3.03884e-08
7.71611e-06
3.71398e-08
7.71415e-06
4.43329e-08
7.7129e-06
5.12598e-08
5.69411e-08
7.71272e-06
8.35699e-06
-6.27511e-09
8.35596e-06
6.15434e-09
8.35547e-06
-1.52419e-08
8.35758e-06
-1.61747e-08
8.36385e-06
-1.17134e-08
8.36716e-06
-1.46515e-08
8.3687e-06
-1.24015e-08
8.37009e-06
-1.44455e-08
8.37064e-06
-1.22262e-08
8.36489e-06
-4.45961e-09
8.35519e-06
4.16468e-09
8.34656e-06
1.31423e-08
8.34265e-06
1.76604e-08
8.34047e-06
2.20556e-08
8.3378e-06
2.77071e-08
8.33494e-06
3.32481e-08
8.33263e-06
3.94471e-08
8.33087e-06
4.60934e-08
8.32991e-06
5.22208e-08
5.70985e-08
8.32975e-06
9.02412e-06
-6.74801e-09
9.02381e-06
6.46891e-09
9.02337e-06
-1.4809e-08
9.02476e-06
-1.75578e-08
9.03035e-06
-1.73068e-08
9.03604e-06
-2.03441e-08
9.03779e-06
-1.41498e-08
9.03684e-06
-1.34941e-08
9.03233e-06
-7.72059e-09
9.02378e-06
4.09763e-09
9.01516e-06
1.27813e-08
9.01115e-06
1.71544e-08
9.0085e-06
2.03028e-08
9.00592e-06
2.4638e-08
9.00344e-06
3.01878e-08
9.00078e-06
3.59101e-08
8.99855e-06
4.16727e-08
8.99702e-06
4.76263e-08
8.99639e-06
5.28501e-08
5.73217e-08
8.99617e-06
9.7445e-06
-7.14342e-09
9.74508e-06
5.88666e-09
9.74516e-06
-1.48893e-08
9.74618e-06
-1.85803e-08
9.74931e-06
-2.04308e-08
9.75565e-06
-2.66906e-08
9.75759e-06
-1.60867e-08
9.75191e-06
-7.81815e-09
9.74301e-06
1.1799e-09
9.73577e-06
1.13437e-08
9.73267e-06
1.58803e-08
9.73035e-06
1.94713e-08
9.72756e-06
2.30922e-08
9.72482e-06
2.73795e-08
9.72238e-06
3.26331e-08
9.71994e-06
3.83462e-08
9.71788e-06
4.37312e-08
9.71668e-06
4.88231e-08
9.71604e-06
5.34963e-08
5.73923e-08
9.71597e-06
1.05223e-05
-7.37077e-09
1.05244e-05
3.83823e-09
1.05239e-05
-1.44647e-08
1.05271e-05
-2.17407e-08
1.05259e-05
-1.9261e-08
1.05287e-05
-2.94286e-08
1.05292e-05
-1.65901e-08
1.05237e-05
-2.40446e-09
1.0516e-05
8.90459e-09
1.05115e-05
1.58431e-08
1.05088e-05
1.8604e-08
1.05067e-05
2.16046e-08
1.05041e-05
2.56314e-08
1.05014e-05
3.01476e-08
1.04989e-05
3.50852e-08
1.04967e-05
4.05529e-08
1.0495e-05
4.54499e-08
1.04939e-05
4.99194e-08
1.04933e-05
5.40349e-08
5.73038e-08
1.04934e-05
1.13622e-05
-7.42793e-09
1.13655e-05
5.76539e-10
1.13656e-05
-1.45289e-08
1.13694e-05
-2.55698e-08
1.13674e-05
-1.72602e-08
1.13603e-05
-2.23515e-08
1.13574e-05
-1.37262e-08
1.13549e-05
1.52278e-10
1.13532e-05
1.05634e-08
1.13508e-05
1.82963e-08
1.13477e-05
2.16675e-08
1.13451e-05
2.42065e-08
1.13428e-05
2.79792e-08
1.13402e-05
3.27497e-08
1.13378e-05
3.74533e-08
1.13358e-05
4.25497e-08
1.13344e-05
4.68539e-08
1.13334e-05
5.09458e-08
1.1333e-05
5.44189e-08
5.70838e-08
1.13332e-05
1.22693e-05
-7.40522e-09
1.22745e-05
-4.57966e-09
1.22735e-05
-1.35719e-08
1.22753e-05
-2.7393e-08
1.22753e-05
-1.72315e-08
1.22679e-05
-1.49392e-08
1.22616e-05
-7.43586e-09
1.22584e-05
3.36131e-09
1.22573e-05
1.16443e-08
1.22564e-05
1.91813e-08
1.22539e-05
2.42286e-08
1.2251e-05
2.7082e-08
1.22485e-05
3.04294e-08
1.22461e-05
3.51666e-08
1.22439e-05
3.96799e-08
1.22422e-05
4.42935e-08
1.22409e-05
4.81097e-08
1.22401e-05
5.17789e-08
1.22398e-05
5.46426e-08
5.67402e-08
1.22402e-05
1.32489e-05
-7.41191e-09
1.32536e-05
-9.23522e-09
1.32542e-05
-1.4188e-08
1.32524e-05
-2.5624e-08
1.32524e-05
-1.72304e-08
1.32475e-05
-9.9912e-09
1.32413e-05
-1.23164e-09
1.3237e-05
7.66443e-09
1.32349e-05
1.37361e-08
1.32339e-05
2.01766e-08
1.32323e-05
2.58712e-08
1.32296e-05
2.97826e-08
1.3227e-05
3.29866e-08
1.32247e-05
3.74682e-08
1.32227e-05
4.17146e-08
1.32212e-05
4.57795e-08
1.32201e-05
4.92134e-08
1.32195e-05
5.23774e-08
1.32194e-05
5.4687e-08
5.62666e-08
1.32199e-05
1.43067e-05
-7.36697e-09
1.43101e-05
-1.26762e-08
1.43123e-05
-1.6365e-08
1.43093e-05
-2.25696e-08
1.4306e-05
-1.3995e-08
1.43024e-05
-6.39288e-09
1.42985e-05
2.72357e-09
1.42947e-05
1.14599e-08
1.42916e-05
1.68371e-08
1.429e-05
2.17495e-08
1.42885e-05
2.73282e-08
1.42863e-05
3.19753e-08
1.42839e-05
3.54277e-08
1.42817e-05
3.96419e-08
1.42799e-05
4.35019e-08
1.42787e-05
4.70527e-08
1.42778e-05
5.00968e-08
1.42774e-05
5.27451e-08
1.42776e-05
5.45473e-08
5.56658e-08
1.42782e-05
1.54488e-05
-7.11959e-09
1.54511e-05
-1.50604e-08
1.54524e-05
-1.76378e-08
1.54507e-05
-2.08858e-08
1.54461e-05
-9.39601e-09
1.54417e-05
-1.9502e-09
1.54387e-05
5.71308e-09
1.54363e-05
1.38417e-08
1.54334e-05
1.97262e-08
1.54311e-05
2.40331e-08
1.54295e-05
2.89427e-08
1.54276e-05
3.39095e-08
1.54255e-05
3.75183e-08
1.54236e-05
4.15862e-08
1.5422e-05
4.50496e-08
1.54209e-05
4.81407e-08
1.54203e-05
5.07417e-08
1.54201e-05
5.29035e-08
1.54204e-05
5.42347e-08
5.49417e-08
1.54212e-05
1.66819e-05
-6.59427e-09
1.66839e-05
-1.70648e-08
1.66827e-05
-1.6359e-08
1.66808e-05
-1.89772e-08
1.66781e-05
-6.78638e-09
1.66739e-05
2.30682e-09
1.66704e-05
9.17861e-09
1.66686e-05
1.56631e-08
1.66664e-05
2.1926e-08
1.6664e-05
2.64025e-08
1.66621e-05
3.08272e-08
1.66603e-05
3.57136e-08
1.66585e-05
3.935e-08
1.66569e-05
4.32183e-08
1.66555e-05
4.63777e-08
1.66547e-05
4.90217e-08
1.66542e-05
5.11745e-08
1.66543e-05
5.28702e-08
1.66547e-05
5.37625e-08
5.40851e-08
1.66556e-05
1.80137e-05
-5.8751e-09
1.80143e-05
-1.76826e-08
1.80122e-05
-1.42705e-08
1.8009e-05
-1.58068e-08
1.80077e-05
-5.40982e-09
1.80052e-05
4.74049e-09
1.80018e-05
1.26123e-08
1.79995e-05
1.79839e-08
1.79977e-05
2.37482e-08
1.79955e-05
2.85254e-08
1.79936e-05
3.27496e-08
1.79919e-05
3.73994e-08
1.79903e-05
4.09666e-08
1.7989e-05
4.45648e-08
1.7988e-05
4.73855e-08
1.79873e-05
4.96508e-08
1.79871e-05
5.13772e-08
1.79874e-05
5.2636e-08
1.7988e-05
5.31265e-08
5.30954e-08
1.7989e-05
1.94519e-05
-5.04781e-09
1.94509e-05
-1.67476e-08
1.9449e-05
-1.23011e-08
1.94452e-05
-1.20632e-08
1.94434e-05
-3.63353e-09
1.94423e-05
5.82382e-09
1.94398e-05
1.51532e-08
1.94373e-05
2.04762e-08
1.94354e-05
2.56819e-08
1.94335e-05
3.03846e-08
1.94318e-05
3.45216e-08
1.94302e-05
3.89433e-08
1.94288e-05
4.23671e-08
1.94277e-05
4.56525e-08
1.94271e-05
4.80525e-08
1.94267e-05
5.00113e-08
1.94267e-05
5.13296e-08
1.94272e-05
5.2192e-08
1.9428e-05
5.23135e-08
5.19724e-08
1.94291e-05
2.10049e-05
-4.13013e-09
2.10031e-05
-1.49635e-08
2.10011e-05
-1.03359e-08
2.09976e-05
-8.51256e-09
2.09951e-05
-1.18382e-09
2.09942e-05
6.78062e-09
2.09926e-05
1.67508e-08
2.09903e-05
2.27102e-08
2.09883e-05
2.7744e-08
2.09865e-05
3.21417e-08
2.0985e-05
3.60798e-08
2.09836e-05
4.02775e-08
2.09825e-05
4.34859e-08
2.09817e-05
4.64586e-08
2.09814e-05
4.83789e-08
2.09813e-05
5.01007e-08
2.09816e-05
5.10122e-08
2.09823e-05
5.1521e-08
2.09833e-05
5.1313e-08
5.07025e-08
2.09846e-05
2.2682e-05
-3.19671e-09
2.26794e-05
-1.23734e-08
2.26774e-05
-8.33726e-09
2.26744e-05
-5.50965e-09
2.26717e-05
1.5383e-09
2.26704e-05
8.08563e-09
2.26692e-05
1.78817e-08
2.26675e-05
2.44292e-08
2.26656e-05
2.96569e-08
2.26639e-05
3.38341e-08
2.26626e-05
3.74226e-08
2.26615e-05
4.13511e-08
2.26607e-05
4.4271e-08
2.26603e-05
4.68848e-08
2.26602e-05
4.84829e-08
2.26604e-05
4.98789e-08
2.2661e-05
5.04477e-08
2.26619e-05
5.0619e-08
2.2663e-05
5.01489e-08
4.9293e-08
2.26644e-05
2.44931e-05
-2.30833e-09
2.44905e-05
-9.78221e-09
2.44881e-05
-5.97814e-09
2.44854e-05
-2.7564e-09
2.44826e-05
4.27943e-09
2.44809e-05
9.76156e-09
2.448e-05
1.88635e-08
2.44787e-05
2.57005e-08
2.44772e-05
3.11707e-08
2.44756e-05
3.5368e-08
2.44745e-05
3.85874e-08
2.44737e-05
4.21727e-08
2.44732e-05
4.46948e-08
2.44731e-05
4.69935e-08
2.44733e-05
4.83497e-08
2.44738e-05
4.93456e-08
2.44746e-05
4.96341e-08
2.44757e-05
4.94857e-08
2.44771e-05
4.88026e-08
4.77343e-08
2.44786e-05
2.64487e-05
-1.46236e-09
2.64461e-05
-7.13618e-09
2.64436e-05
-3.49378e-09
2.64411e-05
-2.28273e-10
2.64386e-05
6.76234e-09
2.64367e-05
1.1648e-08
2.64356e-05
1.996e-08
2.64346e-05
2.66993e-08
2.64334e-05
3.23445e-08
2.64323e-05
3.65358e-08
2.64313e-05
3.95128e-08
2.64309e-05
4.26133e-08
2.64308e-05
4.47677e-08
2.6431e-05
4.67666e-08
2.64315e-05
4.78843e-08
2.64323e-05
4.85353e-08
2.64334e-05
4.85429e-08
2.64347e-05
4.81459e-08
2.64363e-05
4.72526e-08
4.60341e-08
2.6438e-05
2.85606e-05
-6.96772e-10
2.85582e-05
-4.74603e-09
2.85556e-05
-9.69792e-10
2.85532e-05
2.16437e-09
2.85508e-05
9.23619e-09
2.85487e-05
1.36809e-08
2.85476e-05
2.10581e-08
2.85469e-05
2.73957e-08
2.85462e-05
3.31093e-08
2.85455e-05
3.7238e-08
2.85449e-05
4.00791e-08
2.85448e-05
4.27248e-08
2.8545e-05
4.45265e-08
2.85456e-05
4.62477e-08
2.85464e-05
4.70828e-08
2.85474e-05
4.74784e-08
2.85488e-05
4.72026e-08
2.85503e-05
4.66016e-08
2.8552e-05
4.55267e-08
4.41787e-08
2.85539e-05
3.08409e-05
5.45395e-11
3.08387e-05
-2.52997e-09
3.08363e-05
1.47313e-09
3.0834e-05
4.42284e-09
3.08319e-05
1.13608e-08
3.083e-05
1.56086e-08
3.08288e-05
2.22258e-08
3.08283e-05
2.78643e-08
3.08279e-05
3.3496e-08
3.08276e-05
3.75902e-08
3.08274e-05
4.02852e-08
3.08276e-05
4.25272e-08
3.08281e-05
4.39746e-08
3.0829e-05
4.53685e-08
3.08302e-05
4.59201e-08
3.08316e-05
4.60721e-08
3.08332e-05
4.5591e-08
3.0835e-05
4.47876e-08
3.08369e-05
4.36039e-08
4.21381e-08
3.0839e-05
3.33034e-05
7.26916e-10
3.33015e-05
-6.23926e-10
3.32992e-05
3.81022e-09
3.32971e-05
6.53013e-09
3.32952e-05
1.32339e-08
3.32935e-05
1.73165e-08
3.32924e-05
2.33294e-08
3.32921e-05
2.81933e-08
3.32921e-05
3.34632e-08
3.32922e-05
3.74441e-08
3.32925e-05
4.00248e-08
3.32931e-05
4.19192e-08
3.3294e-05
4.3119e-08
3.32952e-05
4.41496e-08
3.32967e-05
4.44466e-08
3.32984e-05
4.43553e-08
3.33002e-05
4.37359e-08
3.33023e-05
4.27629e-08
3.33044e-05
4.15007e-08
3.99602e-08
3.33065e-05
3.59625e-05
1.39811e-09
3.59609e-05
9.84088e-10
3.59588e-05
5.88702e-09
3.59568e-05
8.5301e-09
3.59552e-05
1.4766e-08
3.59539e-05
1.86498e-08
3.5953e-05
2.42155e-08
3.59528e-05
2.83836e-08
3.59532e-05
3.30988e-08
3.59538e-05
3.67932e-08
3.59547e-05
3.92081e-08
3.59557e-05
4.08492e-08
3.5957e-05
4.18498e-08
3.59585e-05
4.26041e-08
3.59603e-05
4.26726e-08
3.59623e-05
4.24001e-08
3.59644e-05
4.16458e-08
3.59666e-05
4.05758e-08
3.59688e-05
3.92306e-08
3.76699e-08
3.59711e-05
3.88339e-05
1.99101e-09
3.88325e-05
2.36849e-09
3.88307e-05
7.62731e-09
3.88291e-05
1.01989e-08
3.88278e-05
1.60186e-08
3.88268e-05
1.962e-08
3.88263e-05
2.47641e-08
3.88264e-05
2.83027e-08
3.8827e-05
3.24386e-08
3.88281e-05
3.57471e-08
3.88294e-05
3.7879e-08
3.88309e-05
3.9411e-08
3.88325e-05
4.0155e-08
3.88345e-05
4.06666e-08
3.88366e-05
4.05245e-08
3.88389e-05
4.01073e-08
3.88413e-05
3.92632e-08
3.88437e-05
3.81376e-08
3.88462e-05
3.67708e-08
3.52066e-08
3.88487e-05
4.19346e-05
2.44151e-09
4.19334e-05
3.59264e-09
4.19319e-05
9.09285e-09
4.19306e-05
1.15348e-08
4.19297e-05
1.6879e-08
4.19292e-05
2.01309e-08
4.19291e-05
2.48327e-08
4.19296e-05
2.7855e-08
4.19306e-05
3.13539e-08
4.19321e-05
3.42867e-08
4.19339e-05
3.60512e-08
4.19359e-05
3.74792e-08
4.19379e-05
3.80795e-08
4.19403e-05
3.83227e-08
4.19427e-05
3.80956e-08
4.19453e-05
3.74873e-08
4.1948e-05
3.66386e-08
4.19506e-05
3.54509e-08
4.19533e-05
3.41335e-08
3.25841e-08
4.19559e-05
4.52828e-05
2.80411e-09
4.52818e-05
4.59743e-09
4.52807e-05
1.01789e-08
4.52796e-05
1.26097e-08
4.52792e-05
1.73123e-08
4.52793e-05
2.00524e-08
4.52799e-05
2.42456e-08
4.52807e-05
2.69764e-08
4.52822e-05
2.98907e-08
4.52842e-05
3.23179e-08
4.52863e-05
3.39634e-08
4.52887e-05
3.5063e-08
4.52912e-05
3.55906e-08
4.52939e-05
3.559e-08
4.52967e-05
3.53058e-08
4.52996e-05
3.45911e-08
4.53025e-05
3.37273e-08
4.53054e-05
3.25613e-08
4.53082e-05
3.12852e-08
2.98185e-08
4.5311e-05
4.88984e-05
3.03017e-09
4.88975e-05
5.43365e-09
4.88969e-05
1.0866e-08
4.88965e-05
1.29921e-08
4.88965e-05
1.73106e-08
4.8897e-05
1.94998e-08
4.88981e-05
2.31832e-08
4.88994e-05
2.56525e-08
4.89014e-05
2.79498e-08
4.89038e-05
2.98912e-08
4.89063e-05
3.14209e-08
4.89092e-05
3.22053e-08
4.89121e-05
3.26728e-08
4.89152e-05
3.25306e-08
4.89183e-05
3.21939e-08
4.89214e-05
3.14351e-08
4.89246e-05
3.05573e-08
4.89277e-05
2.94283e-08
4.89308e-05
2.8231e-08
2.68702e-08
4.89337e-05
5.28026e-05
3.11897e-09
5.28021e-05
5.92229e-09
5.28018e-05
1.11804e-08
5.2802e-05
1.28434e-08
5.28025e-05
1.67753e-08
5.28034e-05
1.86356e-08
5.28051e-05
2.1497e-08
5.2807e-05
2.36998e-08
5.28095e-05
2.5425e-08
5.28124e-05
2.70195e-08
5.28154e-05
2.83801e-08
5.28188e-05
2.88923e-08
5.28221e-05
2.93139e-08
5.28256e-05
2.90563e-08
5.2829e-05
2.87713e-08
5.28324e-05
2.80032e-08
5.28358e-05
2.71971e-08
5.28391e-05
2.61102e-08
5.28423e-05
2.50284e-08
2.37775e-08
5.28454e-05
5.70185e-05
3.12961e-09
5.70183e-05
6.08569e-09
5.70184e-05
1.11345e-08
5.70189e-05
1.23121e-08
5.70201e-05
1.56251e-08
5.70217e-05
1.6985e-08
5.70241e-05
1.91232e-08
5.70268e-05
2.10468e-08
5.70297e-05
2.24451e-08
5.70331e-05
2.36382e-08
5.70366e-05
2.49205e-08
5.70402e-05
2.52287e-08
5.70439e-05
2.5618e-08
5.70477e-05
2.5297e-08
5.70514e-05
2.50335e-08
5.70551e-05
2.43161e-08
5.70587e-05
2.35744e-08
5.70622e-05
2.26116e-08
5.70656e-05
2.1627e-08
2.05312e-08
5.70689e-05
6.15711e-05
2.9257e-09
6.15714e-05
5.82076e-09
6.1572e-05
1.04967e-08
6.15731e-05
1.12745e-08
6.15748e-05
1.3897e-08
6.15771e-05
1.46833e-08
6.15799e-05
1.62893e-08
6.15831e-05
1.78399e-08
6.15866e-05
1.90227e-08
6.15903e-05
1.99491e-08
6.15942e-05
2.10157e-08
6.15982e-05
2.12182e-08
6.16023e-05
2.15023e-08
6.16064e-05
2.11981e-08
6.16105e-05
2.09322e-08
6.16145e-05
2.03161e-08
6.16184e-05
1.96578e-08
6.16222e-05
1.88271e-08
6.16258e-05
1.80042e-08
1.7128e-08
6.16292e-05
6.64873e-05
2.41805e-09
6.64882e-05
4.97417e-09
6.64898e-05
8.86278e-09
6.64917e-05
9.40897e-09
6.64938e-05
1.17639e-08
6.64964e-05
1.2066e-08
6.64995e-05
1.3202e-08
6.6503e-05
1.43439e-08
6.65068e-05
1.51802e-08
6.65109e-05
1.583e-08
6.65153e-05
1.6644e-08
6.65198e-05
1.67529e-08
6.65243e-05
1.69932e-08
6.65288e-05
1.67054e-08
6.65332e-05
1.65508e-08
6.65375e-05
1.60045e-08
6.65416e-05
1.55225e-08
6.65456e-05
1.48237e-08
6.65494e-05
1.41772e-08
1.34241e-08
6.65532e-05
7.17957e-05
1.91936e-09
7.17968e-05
3.82121e-09
7.17989e-05
6.82203e-09
7.18015e-05
6.7279e-09
7.18046e-05
8.70877e-09
7.18078e-05
8.82506e-09
7.18115e-05
9.4946e-09
7.18155e-05
1.03667e-08
7.18198e-05
1.0931e-08
7.18244e-05
1.11856e-08
7.18291e-05
1.19324e-08
7.1834e-05
1.18984e-08
7.18388e-05
1.21994e-08
7.18436e-05
1.19016e-08
7.18482e-05
1.18873e-08
7.18528e-05
1.14722e-08
7.18571e-05
1.11499e-08
7.18613e-05
1.06351e-08
7.18653e-05
1.01615e-08
9.64074e-09
7.18691e-05
7.75283e-05
7.75303e-05
7.75332e-05
7.75362e-05
7.754e-05
7.75438e-05
7.75479e-05
7.75526e-05
7.75573e-05
7.75624e-05
7.75676e-05
7.75728e-05
7.75781e-05
7.75833e-05
7.75884e-05
7.75933e-05
7.75981e-05
7.76026e-05
7.76069e-05
7.7611e-05
3.77531e-06
6.73541e-08
3.68056e-06
9.47529e-08
3.58048e-06
1.0008e-07
3.48211e-06
9.83678e-08
3.38404e-06
9.80645e-08
3.28474e-06
9.93058e-08
3.18357e-06
1.01171e-07
3.08049e-06
1.03074e-07
2.97564e-06
1.04855e-07
2.86905e-06
1.06591e-07
2.76067e-06
1.08382e-07
2.65048e-06
1.10187e-07
2.53847e-06
1.12005e-07
2.42459e-06
1.13883e-07
2.30887e-06
1.15717e-07
2.19144e-06
1.17433e-07
2.07247e-06
1.18973e-07
1.95222e-06
1.20243e-07
1.8311e-06
1.21128e-07
1.70959e-06
1.2151e-07
1.58838e-06
1.21208e-07
1.46877e-06
1.19613e-07
1.353e-06
1.15765e-07
1.24357e-06
1.09434e-07
1.14381e-06
9.97565e-08
1.0574e-06
8.64093e-08
9.8738e-07
7.00207e-08
9.3493e-07
5.24503e-08
8.98072e-07
3.68576e-08
8.72741e-07
2.53315e-08
8.54975e-07
1.77659e-08
8.41936e-07
1.3039e-08
8.31545e-07
1.03904e-08
8.22533e-07
9.0124e-09
8.14119e-07
8.4135e-09
8.05687e-07
8.43274e-09
7.96896e-07
8.79068e-09
7.876e-07
9.29544e-09
7.77776e-07
9.82454e-09
7.67444e-07
1.03319e-08
7.56746e-07
1.06978e-08
7.45844e-07
1.09025e-08
7.34817e-07
1.10271e-08
7.23765e-07
1.10517e-08
7.12741e-07
1.10235e-08
7.0186e-07
1.08812e-08
6.91136e-07
1.07241e-08
6.80606e-07
1.05302e-08
6.70269e-07
1.03368e-08
6.60122e-07
1.01469e-08
6.50182e-07
9.93982e-09
6.40462e-07
9.72016e-09
6.30956e-07
9.50625e-09
6.21673e-07
9.28256e-09
6.12658e-07
9.01573e-09
6.03889e-07
8.76869e-09
5.95401e-07
8.48774e-09
5.8717e-07
8.23168e-09
5.79136e-07
8.03325e-09
5.71344e-07
7.79276e-09
5.63703e-07
7.64015e-09
5.56258e-07
7.4455e-09
5.48993e-07
7.26491e-09
5.4194e-07
7.05256e-09
5.35099e-07
6.84183e-09
5.28463e-07
6.63589e-09
5.22002e-07
6.46093e-09
5.15675e-07
6.32667e-09
5.09474e-07
6.2013e-09
5.03438e-07
6.03542e-09
4.97497e-07
5.94164e-09
4.91759e-07
5.73822e-09
4.86156e-07
5.60238e-09
4.80719e-07
5.43721e-09
4.75402e-07
5.31663e-09
4.70237e-07
5.16533e-09
4.65177e-07
5.06032e-09
4.60239e-07
4.93772e-09
4.55483e-07
4.75633e-09
4.50857e-07
4.62534e-09
4.46362e-07
4.49503e-09
4.42087e-07
4.2749e-09
4.37861e-07
4.22583e-09
4.33901e-07
3.96037e-09
4.30066e-07
3.83511e-09
4.26336e-07
3.72999e-09
4.22843e-07
3.49279e-09
4.19579e-07
3.2642e-09
4.16289e-07
3.2897e-09
4.13359e-07
2.93046e-09
4.10526e-07
2.83334e-09
4.07777e-07
2.74824e-09
4.05264e-07
2.51294e-09
4.0302e-07
2.24393e-09
4.00667e-07
2.35383e-09
3.98568e-07
2.09843e-09
3.9662e-07
1.94864e-09
3.94731e-07
1.88838e-09
3.92707e-07
2.02439e-09
2.30594e-09
4.1651e-06
6.20345e-08
4.16869e-06
9.1159e-08
4.16298e-06
1.05797e-07
4.15296e-06
1.08382e-07
4.14211e-06
1.08914e-07
4.13012e-06
1.11294e-07
4.11583e-06
1.15464e-07
4.09865e-06
1.20252e-07
4.07847e-06
1.25033e-07
4.05529e-06
1.2977e-07
4.02901e-06
1.3467e-07
3.99946e-06
1.39733e-07
3.96648e-06
1.44984e-07
3.92987e-06
1.5049e-07
3.88947e-06
1.56118e-07
3.84513e-06
1.61773e-07
3.79673e-06
1.67374e-07
3.74416e-06
1.72811e-07
3.6874e-06
1.7789e-07
3.62646e-06
1.82452e-07
3.56146e-06
1.86205e-07
3.49275e-06
1.88328e-07
3.42126e-06
1.87251e-07
3.34808e-06
1.82617e-07
3.27457e-06
1.73262e-07
3.20266e-06
1.58325e-07
3.13442e-06
1.38264e-07
3.07132e-06
1.15545e-07
3.01427e-06
9.39105e-08
2.96285e-06
7.6751e-08
2.91552e-06
6.50905e-08
2.87085e-06
5.77134e-08
2.82792e-06
5.33185e-08
2.78608e-06
5.08519e-08
2.74516e-06
4.93369e-08
2.7049e-06
4.86946e-08
2.66508e-06
4.86033e-08
2.62564e-06
4.87391e-08
2.58642e-06
4.90425e-08
2.54743e-06
4.93285e-08
2.50873e-06
4.93954e-08
2.47041e-06
4.9222e-08
2.43255e-06
4.88898e-08
2.39516e-06
4.84348e-08
2.35828e-06
4.79045e-08
2.32201e-06
4.7154e-08
2.28638e-06
4.63574e-08
2.25145e-06
4.54566e-08
2.21721e-06
4.45807e-08
2.18368e-06
4.36757e-08
2.15087e-06
4.27445e-08
2.11883e-06
4.17649e-08
2.08752e-06
4.08095e-08
2.05699e-06
3.98185e-08
2.02726e-06
3.87488e-08
1.99832e-06
3.77043e-08
1.97019e-06
3.66189e-08
1.94286e-06
3.55628e-08
1.91626e-06
3.46323e-08
1.8904e-06
3.36462e-08
1.86517e-06
3.28732e-08
1.84059e-06
3.20293e-08
1.81662e-06
3.12324e-08
1.7933e-06
3.03743e-08
1.7706e-06
2.95403e-08
1.74851e-06
2.87251e-08
1.72697e-06
2.80027e-08
1.70596e-06
2.73358e-08
1.68538e-06
2.67843e-08
1.66528e-06
2.61303e-08
1.64559e-06
2.56376e-08
1.62642e-06
2.49061e-08
1.60768e-06
2.43415e-08
1.58945e-06
2.36664e-08
1.5716e-06
2.31656e-08
1.55422e-06
2.25431e-08
1.53721e-06
2.20757e-08
1.52066e-06
2.14826e-08
1.50453e-06
2.08856e-08
1.4889e-06
2.02544e-08
1.47368e-06
1.97163e-08
1.45904e-06
1.89152e-08
1.44476e-06
1.85085e-08
1.43112e-06
1.76012e-08
1.41787e-06
1.70858e-08
1.40522e-06
1.63756e-08
1.39306e-06
1.56573e-08
1.38159e-06
1.47321e-08
1.37042e-06
1.44655e-08
1.36005e-06
1.32988e-08
1.34995e-06
1.2929e-08
1.34062e-06
1.20817e-08
1.33168e-06
1.14471e-08
1.32349e-06
1.04365e-08
1.31534e-06
1.05069e-08
1.30813e-06
9.30479e-09
1.30102e-06
9.0607e-09
1.29455e-06
8.35439e-09
1.28802e-06
8.55914e-09
8.82717e-09
4.49735e-06
6.09975e-08
4.50316e-06
8.53471e-08
4.50662e-06
1.02334e-07
4.50607e-06
1.08939e-07
4.50453e-06
1.10454e-07
4.50387e-06
1.11951e-07
4.50383e-06
1.15506e-07
4.50366e-06
1.2042e-07
4.50291e-06
1.25788e-07
4.50144e-06
1.31234e-07
4.49923e-06
1.36884e-07
4.49617e-06
1.42792e-07
4.49215e-06
1.49005e-07
4.487e-06
1.55634e-07
4.48059e-06
1.62525e-07
4.47277e-06
1.69599e-07
4.46341e-06
1.7673e-07
4.45234e-06
1.83881e-07
4.43946e-06
1.90773e-07
4.42463e-06
1.97278e-07
4.40782e-06
2.03021e-07
4.38895e-06
2.0719e-07
4.36797e-06
2.08235e-07
4.34514e-06
2.05446e-07
4.3205e-06
1.97902e-07
4.29437e-06
1.84453e-07
4.26724e-06
1.65393e-07
4.23982e-06
1.42973e-07
4.21306e-06
1.2067e-07
4.18759e-06
1.02215e-07
4.16315e-06
8.95367e-08
4.13906e-06
8.17978e-08
4.11487e-06
7.75093e-08
4.09036e-06
7.53638e-08
4.06538e-06
7.43168e-08
4.03994e-06
7.41341e-08
4.01396e-06
7.45832e-08
3.98742e-06
7.52817e-08
3.96022e-06
7.62442e-08
3.93234e-06
7.72003e-08
3.90384e-06
7.78981e-08
3.87474e-06
7.83215e-08
3.84509e-06
7.85455e-08
3.8149e-06
7.86178e-08
3.7842e-06
7.8608e-08
3.75307e-06
7.82879e-08
3.72149e-06
7.79317e-08
3.68957e-06
7.73736e-08
3.6573e-06
7.68535e-08
3.62474e-06
7.62412e-08
3.59194e-06
7.55388e-08
3.55896e-06
7.47474e-08
3.52581e-06
7.39628e-08
3.49256e-06
7.30622e-08
3.45922e-06
7.20939e-08
3.42587e-06
7.10467e-08
3.39254e-06
6.99519e-08
3.35929e-06
6.88156e-08
3.32613e-06
6.77948e-08
3.2931e-06
6.66728e-08
3.26015e-06
6.58215e-08
3.22734e-06
6.48453e-08
3.19469e-06
6.38812e-08
3.16227e-06
6.27904e-08
3.13011e-06
6.17049e-08
3.09829e-06
6.05381e-08
3.06669e-06
5.96069e-08
3.03545e-06
5.85765e-08
3.00444e-06
5.77886e-08
2.97377e-06
5.68024e-08
2.94339e-06
5.60233e-08
2.91346e-06
5.48325e-08
2.88385e-06
5.39526e-08
2.85475e-06
5.27676e-08
2.82599e-06
5.19218e-08
2.79774e-06
5.07925e-08
2.76983e-06
4.99899e-08
2.74253e-06
4.87842e-08
2.7156e-06
4.78111e-08
2.68936e-06
4.64987e-08
2.66356e-06
4.55148e-08
2.63846e-06
4.40114e-08
2.61389e-06
4.30762e-08
2.59016e-06
4.13327e-08
2.56681e-06
4.04365e-08
2.54453e-06
3.86592e-08
2.52274e-06
3.74424e-08
2.50192e-06
3.55595e-08
2.48166e-06
3.47182e-08
2.46261e-06
3.23469e-08
2.44375e-06
3.1789e-08
2.42631e-06
2.95244e-08
2.40941e-06
2.83532e-08
2.39364e-06
2.62004e-08
2.378e-06
2.6147e-08
2.364e-06
2.33096e-08
2.35009e-06
2.29677e-08
2.33736e-06
2.1084e-08
2.32471e-06
2.12099e-08
2.06984e-08
4.85805e-06
6.11871e-08
4.8625e-06
8.08955e-08
4.86707e-06
9.77612e-08
4.86837e-06
1.07648e-07
4.86767e-06
1.11154e-07
4.86745e-06
1.1217e-07
4.86804e-06
1.14909e-07
4.86933e-06
1.19135e-07
4.87079e-06
1.24323e-07
4.87215e-06
1.29878e-07
4.87337e-06
1.35665e-07
4.87448e-06
1.41678e-07
4.87551e-06
1.47982e-07
4.8764e-06
1.54737e-07
4.87715e-06
1.61777e-07
4.87771e-06
1.69037e-07
4.87809e-06
1.76349e-07
4.87824e-06
1.83731e-07
4.87816e-06
1.90854e-07
4.87784e-06
1.97607e-07
4.87728e-06
2.03575e-07
4.87644e-06
2.08036e-07
4.87503e-06
2.09638e-07
4.87293e-06
2.07552e-07
4.86989e-06
2.00934e-07
4.86551e-06
1.88834e-07
4.85951e-06
1.71393e-07
4.85203e-06
1.50461e-07
4.84363e-06
1.29066e-07
4.83512e-06
1.10721e-07
4.82686e-06
9.78016e-08
4.81863e-06
9.00234e-08
4.81019e-06
8.59524e-08
4.80146e-06
8.40958e-08
4.79227e-06
8.35096e-08
4.78273e-06
8.36747e-08
4.77282e-06
8.44846e-08
4.76255e-06
8.55527e-08
4.75183e-06
8.69695e-08
4.74062e-06
8.84104e-08
4.72889e-06
8.96258e-08
4.71663e-06
9.05824e-08
4.70381e-06
9.1369e-08
4.69043e-06
9.19938e-08
4.67646e-06
9.25768e-08
4.66194e-06
9.28098e-08
4.64681e-06
9.30586e-08
4.63112e-06
9.30684e-08
4.61481e-06
9.31645e-08
4.5979e-06
9.31458e-08
4.58038e-06
9.3058e-08
4.56231e-06
9.28158e-08
4.54363e-06
9.26496e-08
4.52445e-06
9.22433e-08
4.50469e-06
9.18535e-08
4.48444e-06
9.1293e-08
4.46368e-06
9.07154e-08
4.44241e-06
9.0083e-08
4.42065e-06
8.9551e-08
4.39841e-06
8.89124e-08
4.37565e-06
8.85861e-08
4.35242e-06
8.80724e-08
4.3287e-06
8.76052e-08
4.30464e-06
8.68494e-08
4.2801e-06
8.62428e-08
4.25531e-06
8.5325e-08
4.23004e-06
8.48804e-08
4.20448e-06
8.41373e-08
4.17853e-06
8.37374e-08
4.15229e-06
8.30385e-08
4.12573e-06
8.25884e-08
4.09904e-06
8.15234e-08
4.07202e-06
8.09719e-08
4.04496e-06
7.98268e-08
4.01758e-06
7.93011e-08
3.99025e-06
7.81211e-08
3.9626e-06
7.76375e-08
3.93512e-06
7.62643e-08
3.90747e-06
7.5462e-08
3.87999e-06
7.3979e-08
3.85249e-06
7.30144e-08
3.82528e-06
7.12298e-08
3.79801e-06
7.0345e-08
3.77137e-06
6.79677e-08
3.74455e-06
6.72618e-08
3.71849e-06
6.47192e-08
3.69262e-06
6.33109e-08
3.66742e-06
6.07579e-08
3.64237e-06
5.97698e-08
3.61856e-06
5.61496e-08
3.59453e-06
5.5823e-08
3.57182e-06
5.22318e-08
3.5495e-06
5.06814e-08
3.52833e-06
4.73688e-08
3.50702e-06
4.74501e-08
3.48751e-06
4.28211e-08
3.46798e-06
4.25002e-08
3.44976e-06
3.93035e-08
3.43156e-06
3.94064e-08
3.75916e-08
5.24785e-06
6.13655e-08
5.25116e-06
7.7584e-08
5.25525e-06
9.36696e-08
5.25772e-06
1.05183e-07
5.25811e-06
1.10766e-07
5.25787e-06
1.12412e-07
5.25814e-06
1.14631e-07
5.25928e-06
1.17996e-07
5.26093e-06
1.22673e-07
5.26266e-06
1.28154e-07
5.26429e-06
1.34033e-07
5.26591e-06
1.40057e-07
5.26755e-06
1.4634e-07
5.26925e-06
1.53042e-07
5.27099e-06
1.60033e-07
5.27282e-06
1.67213e-07
5.27475e-06
1.74417e-07
5.27683e-06
1.81652e-07
5.27909e-06
1.88595e-07
5.2816e-06
1.95091e-07
5.28442e-06
2.00753e-07
5.28753e-06
2.04928e-07
5.29068e-06
2.06488e-07
5.29369e-06