/*--------------------------------*- C++ -*----------------------------------*\
| =========                 |                                                 |
| \\      /  F ield         | OpenFOAM: The Open Source CFD Toolbox           |
|  \\    /   O peration     | Version:  v2106                                 |
|   \\  /    A nd           | Website:  www.openfoam.com                      |
|    \\/     M anipulation  |                                                 |
\*---------------------------------------------------------------------------*/
FoamFile
{
    version     2.0;
    format      ascii;
    arch        "LSB;label=32;scalar=64";
    class       volVectorField;
    location    "1.3";
    object      U;
}
// * * * * * * * * * * * * * * * * * * * * * * * * * * * * * * * * * * * * * //

dimensions      [0 1 -1 0 0 0 0];

internalField   nonuniform List<vector> 
4800
(
(0.960112 -3.37604e-05 0)
(1.03925 1.46693e-05 0)
(0.964181 2.82737e-06 0)
(1.03541 -0.000192277 0)
(0.967774 0.000252398 0)
(1.03201 -0.000266958 0)
(0.971016 0.000215579 0)
(1.02868 -0.000304532 0)
(0.974102 0.000281563 0)
(1.02566 -0.000232399 0)
(0.977108 0.000221532 0)
(1.02276 -0.000421275 0)
(0.979524 1.86807e-06 0)
(1.0197 -0.000542796 0)
(0.981461 -4.70827e-05 0)
(1.01674 -0.000559809 0)
(0.982986 -5.63004e-05 0)
(1.01363 -0.000546992 0)
(0.983758 0.000186544 0)
(1.01032 0.000599569 0)
(0.982499 -0.000108906 0)
(1.01494 5.56148e-05 0)
(0.98691 -2.83615e-05 0)
(1.01143 -0.000170751 0)
(0.990297 0.000231027 0)
(1.00867 -0.000258228 0)
(0.992944 0.000213892 0)
(1.0063 -0.000316762 0)
(0.995046 0.000273554 0)
(1.00453 -0.00027028 0)
(0.996767 0.00020495 0)
(1.00308 -0.000476479 0)
(0.997738 -2.96683e-05 0)
(1.00163 -0.000609702 0)
(0.998127 -5.88929e-05 0)
(1.00031 -0.000605394 0)
(0.998065 3.98832e-05 0)
(0.998873 -0.00027507 0)
(0.99752 0.000901736 0)
(0.997376 0.00182323 0)
(0.99585 -1.1242e-05 0)
(1.00281 -5.92685e-05 0)
(0.997639 5.84993e-05 0)
(1.00181 -0.000234741 0)
(0.99868 0.000255372 0)
(1.0013 -0.000270068 0)
(0.999379 0.000196536 0)
(1.00086 -0.000269829 0)
(0.999834 0.000194407 0)
(1.00068 -0.000171483 0)
(1.00018 8.24781e-05 0)
(1.00052 -0.000290414 0)
(1.00011 -0.000150876 0)
(1.00006 -0.000408956 0)
(0.999706 -0.00021147 0)
(0.999502 -0.000316517 0)
(0.999106 1.80321e-06 0)
(0.9987 0.000363102 0)
(0.998262 0.00121345 0)
(0.997808 0.00228613 0)
(0.999399 -4.43969e-05 0)
(1.00029 -2.5759e-05 0)
(0.999978 1.2082e-05 0)
(1.00032 -0.000203191 0)
(1.0002 0.000198558 0)
(1.00049 -0.00021169 0)
(1.00039 0.000115852 0)
(1.00051 -0.000185908 0)
(1.00052 8.86884e-05 0)
(1.00059 -6.0391e-05 0)
(1.00065 -4.10382e-05 0)
(1.00058 -0.000239246 0)
(1.00046 -0.000288934 0)
(1.00023 -0.000372263 0)
(1.00002 -0.000320324 0)
(0.999745 -0.000192179 0)
(0.999445 3.65102e-05 0)
(0.999065 0.000610208 0)
(0.998727 0.00149257 0)
(0.998314 0.00248397 0)
(0.999958 -1.56612e-05 0)
(1 -4.82192e-05 0)
(1.00031 6.8241e-06 0)
(1.00023 -0.000173881 0)
(1.00042 0.000141706 0)
(1.0005 -0.000160045 0)
(1.00055 4.53306e-05 0)
(1.00056 -0.000113011 0)
(1.00067 1.39935e-05 0)
(1.00066 -7.41849e-05 0)
(1.00077 -0.000102659 0)
(1.00066 -0.000265219 0)
(1.00058 -0.000310772 0)
(1.00033 -0.000347336 0)
(1.00017 -0.000283355 0)
(0.999897 -9.60474e-05 0)
(0.999668 0.000256112 0)
(0.999363 0.00106955 0)
(0.999073 0.00189855 0)
(0.998666 0.00274213 0)
(1.00003 -3.84374e-05 0)
(0.99998 -2.26174e-05 0)
(1.00035 -6.28268e-05 0)
(1.00023 -0.000124762 0)
(1.00047 5.77722e-05 0)
(1.0005 -8.09825e-05 0)
(1.0006 -4.06741e-05 0)
(1.00057 -8.39822e-05 0)
(1.00071 -4.0931e-05 0)
(1.00067 -9.58708e-05 0)
(1.00079 -0.00015624 0)
(1.00066 -0.00027008 0)
(1.00061 -0.00033721 0)
(1.00036 -0.000315542 0)
(1.00024 -0.000230199 0)
(0.999985 0.000106606 0)
(0.99987 0.000734385 0)
(0.999576 0.00146508 0)
(0.999312 0.00212874 0)
(0.998902 0.00283117 0)
(1.00004 -3.46982e-05 0)
(0.999976 -9.93645e-06 0)
(1.00035 -0.000114447 0)
(1.00022 -8.06861e-05 0)
(1.00049 -9.85841e-06 0)
(1.00049 -5.40414e-05 0)
(1.00061 -6.22875e-05 0)
(1.00057 -0.000110885 0)
(1.00073 -8.90296e-05 0)
(1.00066 -0.000114953 0)
(1.0008 -0.000200144 0)
(1.00065 -0.000267997 0)
(1.00063 -0.000337873 0)
(1.00037 -0.0002448 0)
(1.00031 -2.24462e-05 0)
(1.00012 0.000575122 0)
(1.00003 0.00113675 0)
(0.999728 0.00165931 0)
(0.999498 0.00220654 0)
(0.999102 0.00283347 0)
(1.00003 -4.26865e-05 0)
(0.999987 1.83884e-05 0)
(1.00034 -0.000182506 0)
(1.00023 -7.10215e-05 0)
(1.0005 -1.86926e-05 0)
(1.00049 -0.000107184 0)
(1.00061 -5.26481e-05 0)
(1.00056 -0.000147999 0)
(1.00073 -0.000123461 0)
(1.00065 -0.00017508 0)
(1.00079 -0.000214833 0)
(1.00064 -0.000280874 0)
(1.00064 -0.000258291 0)
(1.00042 -6.44549e-05 0)
(1.00043 0.0004293 0)
(1.00024 0.000883402 0)
(1.00015 0.00128452 0)
(0.999863 0.00170874 0)
(0.999672 0.00222161 0)
(0.99931 0.00281513 0)
(1.00002 -5.34919e-05 0)
(0.999996 3.80837e-05 0)
(1.00033 -0.00020286 0)
(1.00025 -0.000103784 0)
(1.00049 -1.36672e-05 0)
(1.0005 -0.000131374 0)
(1.0006 -0.000118681 0)
(1.00057 -0.000170729 0)
(1.00072 -0.000177065 0)
(1.00065 -0.000200469 0)
(1.00078 -0.000246491 0)
(1.00065 -0.000227108 0)
(1.00067 -8.5055e-05 0)
(1.00052 0.000353715 0)
(1.00052 0.000715928 0)
(1.00034 0.00100229 0)
(1.00025 0.00133504 0)
(1.00001 0.00175283 0)
(0.999844 0.00225922 0)
(0.999528 0.00282441 0)
(1.00001 -4.85705e-05 0)
(1.00001 4.2048e-05 0)
(1.00031 -0.000171921 0)
(1.00027 -0.000180808 0)
(1.00048 -2.76623e-05 0)
(1.0005 -0.000169382 0)
(1.00059 -0.00015144 0)
(1.00057 -0.000233336 0)
(1.00071 -0.000198233 0)
(1.00066 -0.00023354 0)
(1.00078 -0.00020543 0)
(1.00069 -7.4224e-05 0)
(1.00075 0.000291691 0)
(1.00061 0.000609033 0)
(1.00058 0.000838386 0)
(1.00043 0.00107256 0)
(1.00036 0.00140113 0)
(1.00017 0.00182476 0)
(1.00002 0.00232175 0)
(0.999751 0.00285952 0)
(1 -7.03665e-05 0)
(1.00001 7.52029e-05 0)
(1.00029 -0.000192352 0)
(1.00029 -0.000189452 0)
(1.00047 -0.000140077 0)
(1.00051 -0.000172439 0)
(1.00057 -0.000195601 0)
(1.00058 -0.000244782 0)
(1.0007 -0.000246192 0)
(1.00067 -0.000165198 0)
(1.0008 -6.8879e-05 0)
(1.00078 0.000267694 0)
(1.00081 0.000495185 0)
(1.00067 0.00067214 0)
(1.00063 0.000872555 0)
(1.00052 0.00113198 0)
(1.00048 0.0014681 0)
(1.00034 0.00189237 0)
(1.00021 0.00237337 0)
(0.999975 0.00288206 0)
(0.999997 -5.60036e-05 0)
(1.00002 5.52295e-05 0)
(1.00027 -0.000160367 0)
(1.00029 -0.000229184 0)
(1.00047 -0.000208993 0)
(1.00051 -0.000277776 0)
(1.00056 -0.000199372 0)
(1.00057 -0.000262604 0)
(1.00071 -0.000217267 0)
(1.00071 -3.80139e-05 0)
(1.00086 0.000242566 0)
(1.00083 0.000450441 0)
(1.00084 0.000559635 0)
(1.00073 0.000705807 0)
(1.0007 0.000931908 0)
(1.00062 0.00121682 0)
(1.00061 0.00156079 0)
(1.00051 0.00197165 0)
(1.00041 0.00242956 0)
(1.0002 0.00290449 0)
(1 -8.10172e-05 0)
(1.00001 8.53676e-05 0)
(1.00026 -0.000194501 0)
(1.00029 -0.000207141 0)
(1.00045 -0.000286855 0)
(1.00051 -0.000377813 0)
(1.00057 -0.000256621 0)
(1.00058 -0.000190823 0)
(1.00073 -0.000100179 0)
(1.00077 0.000188487 0)
(1.0009 0.000371743 0)
(1.00086 0.000476824 0)
(1.00087 0.000600388 0)
(1.00079 0.000772892 0)
(1.00079 0.00101752 0)
(1.00074 0.00131926 0)
(1.00075 0.00166074 0)
(1.00069 0.00205252 0)
(1.00061 0.00248111 0)
(1.00041 0.00292138 0)
(1.00001 -6.57119e-05 0)
(1 4.55873e-05 0)
(1.00024 -0.000168403 0)
(1.00028 -0.000265513 0)
(1.00044 -0.000259331 0)
(1.00051 -0.000463993 0)
(1.00059 -0.000304047 0)
(1.00061 -9.58227e-05 0)
(1.00078 0.000145922 0)
(1.00081 0.000340324 0)
(1.00092 0.000418975 0)
(1.00089 0.000514208 0)
(1.00092 0.000658153 0)
(1.00086 0.000853954 0)
(1.00088 0.00109841 0)
(1.00086 0.001401 0)
(1.00089 0.00173379 0)
(1.00086 0.00210676 0)
(1.00081 0.00250438 0)
(1.00063 0.00291088 0)
(1.00001 -8.34439e-05 0)
(0.999993 3.9908e-05 0)
(1.00022 -0.000178728 0)
(1.00027 -0.000312183 0)
(1.00042 -0.0002559 0)
(1.00051 -0.000395076 0)
(1.00063 -0.000286712 0)
(1.00067 -1.103e-05 0)
(1.00082 0.000215664 0)
(1.00083 0.000384754 0)
(1.00093 0.000488301 0)
(1.00093 0.000593203 0)
(1.00097 0.000745555 0)
(1.00094 0.000950829 0)
(1.00099 0.00119258 0)
(1.00099 0.00148665 0)
(1.00105 0.00181017 0)
(1.00105 0.00216403 0)
(1.00101 0.00253296 0)
(1.00085 0.00290778 0)
(1.00001 -7.01469e-05 0)
(0.999992 -2.89556e-05 0)
(1.00019 -0.000151089 0)
(1.00027 -0.000357448 0)
(1.00042 -0.000250677 0)
(1.00051 -0.000277892 0)
(1.00066 -0.000162589 0)
(1.00071 2.08973e-05 0)
(1.00086 0.000198894 0)
(1.00088 0.000383387 0)
(1.00097 0.000532367 0)
(1.00097 0.000657802 0)
(1.00104 0.000814444 0)
(1.00102 0.0010254 0)
(1.00109 0.00126578 0)
(1.00113 0.00155032 0)
(1.00121 0.00186116 0)
(1.00123 0.00219755 0)
(1.00122 0.00254072 0)
(1.00107 0.0028875 0)
(1.00002 -7.51779e-05 0)
(0.99999 -7.84894e-05 0)
(1.00017 -0.000161917 0)
(1.00027 -0.000337952 0)
(1.00044 -0.000256983 0)
(1.00053 -0.00018955 0)
(1.00069 -6.32177e-05 0)
(1.00076 0.000110381 0)
(1.0009 0.000250762 0)
(1.00093 0.000415701 0)
(1.00102 0.000579629 0)
(1.00103 0.000726165 0)
(1.00111 0.000886668 0)
(1.00112 0.00110005 0)
(1.00121 0.00133738 0)
(1.00127 0.00161406 0)
(1.00137 0.00190902 0)
(1.00142 0.00222783 0)
(1.00142 0.00254745 0)
(1.00129 0.00286842 0)
(1.00002 -7.06209e-05 0)
(0.999993 -0.000124564 0)
(1.00017 -0.000188885 0)
(1.00027 -0.000306537 0)
(1.00046 -0.000221773 0)
(1.00057 -0.000133774 0)
(1.00073 1.967e-05 0)
(1.0008 0.000184771 0)
(1.00095 0.000315334 0)
(1.00099 0.000456285 0)
(1.00107 0.000618427 0)
(1.00109 0.000783448 0)
(1.00119 0.000948945 0)
(1.00123 0.0011644 0)
(1.00134 0.00139812 0)
(1.00142 0.00166722 0)
(1.00155 0.00194732 0)
(1.00162 0.00224673 0)
(1.00164 0.00254408 0)
(1.00151 0.0028399 0)
(1.00002 -7.50502e-05 0)
(0.999994 -0.000147606 0)
(1.00016 -0.000208444 0)
(1.00028 -0.00028852 0)
(1.00049 -0.000159825 0)
(1.00061 -6.39188e-05 0)
(1.00078 6.81003e-05 0)
(1.00085 0.000226586 0)
(1.00099 0.000366164 0)
(1.00105 0.00049975 0)
(1.00114 0.000657597 0)
(1.00117 0.000834176 0)
(1.00128 0.00100703 0)
(1.00134 0.00122389 0)
(1.00147 0.00145567 0)
(1.00159 0.00171688 0)
(1.00173 0.00198256 0)
(1.00182 0.00226225 0)
(1.00185 0.0025362 0)
(1.00174 0.0028082 0)
(1.00002 -6.82488e-05 0)
(0.999997 -0.00017553 0)
(1.00017 -0.000204228 0)
(1.00031 -0.000270093 0)
(1.00053 -0.000110593 0)
(1.00065 1.30331e-05 0)
(1.00082 0.000129916 0)
(1.00091 0.000267369 0)
(1.00105 0.000409666 0)
(1.00111 0.000545355 0)
(1.00122 0.000702253 0)
(1.00126 0.000883412 0)
(1.00138 0.00106076 0)
(1.00147 0.00127477 0)
(1.00162 0.00150093 0)
(1.00175 0.00175183 0)
(1.00191 0.0020022 0)
(1.00202 0.00226263 0)
(1.00206 0.00251472 0)
(1.00195 0.00276499 0)
(1.00002 -6.04977e-05 0)
(1.00001 -0.000195574 0)
(1.00018 -0.000182373 0)
(1.00034 -0.000229511 0)
(1.00057 -9.04539e-05 0)
(1.0007 6.01269e-05 0)
(1.00087 0.000191735 0)
(1.00097 0.000311562 0)
(1.00111 0.000451366 0)
(1.00119 0.000589879 0)
(1.0013 0.000744968 0)
(1.00136 0.000929805 0)
(1.00149 0.00110997 0)
(1.00161 0.00132095 0)
(1.00177 0.00153931 0)
(1.00193 0.00177912 0)
(1.0021 0.00201419 0)
(1.00222 0.00225582 0)
(1.00228 0.00248768 0)
(1.00218 0.00271674 0)
(1.00003 -5.44026e-05 0)
(1.00002 -0.000191718 0)
(1.00019 -0.000161754 0)
(1.00038 -0.000178294 0)
(1.00063 -6.56123e-05 0)
(1.00077 7.9728e-05 0)
(1.00092 0.000237377 0)
(1.00104 0.000356619 0)
(1.00117 0.000491662 0)
(1.00127 0.000633168 0)
(1.00139 0.000786832 0)
(1.00147 0.00097319 0)
(1.00161 0.0011552 0)
(1.00174 0.0013607 0)
(1.00193 0.00156985 0)
(1.0021 0.00179672 0)
(1.00229 0.00201726 0)
(1.00242 0.00224161 0)
(1.00249 0.00245483 0)
(1.0024 0.00266418 0)
(1.00002 -4.48541e-05 0)
(1.00003 -0.000177311 0)
(1.00022 -0.000137095 0)
(1.00041 -0.000128916 0)
(1.00068 -3.32908e-05 0)
(1.00084 9.39937e-05 0)
(1.00099 0.00026572 0)
(1.0011 0.0003988 0)
(1.00124 0.000531743 0)
(1.00135 0.000671266 0)
(1.00149 0.000823925 0)
(1.00158 0.00100772 0)
(1.00174 0.00119212 0)
(1.00189 0.00139086 0)
(1.00209 0.00159074 0)
(1.00228 0.00180423 0)
(1.00248 0.0020097 0)
(1.00263 0.00221821 0)
(1.0027 0.00241299 0)
(1.00262 0.002604 0)
(1.00003 -3.64787e-05 0)
(1.00004 -0.000151083 0)
(1.00024 -0.000113029 0)
(1.00045 -8.82201e-05 0)
(1.00073 3.21244e-06 0)
(1.00091 0.000111126 0)
(1.00106 0.000285445 0)
(1.00118 0.000430445 0)
(1.00132 0.000573309 0)
(1.00143 0.000709689 0)
(1.00159 0.000858537 0)
(1.0017 0.00103781 0)
(1.00187 0.00121843 0)
(1.00204 0.00141279 0)
(1.00226 0.00159972 0)
(1.00246 0.00180117 0)
(1.00268 0.00199038 0)
(1.00283 0.00218377 0)
(1.00291 0.00236176 0)
(1.00283 0.00253567 0)
(1.00002 -2.81186e-05 0)
(1.00005 -0.000121233 0)
(1.00027 -8.6075e-05 0)
(1.00048 -5.2587e-05 0)
(1.00078 4.34619e-05 0)
(1.00097 0.000136801 0)
(1.00114 0.000303535 0)
(1.00126 0.000452606 0)
(1.0014 0.000603016 0)
(1.00153 0.000745262 0)
(1.00169 0.000887483 0)
(1.00183 0.00106302 0)
(1.00201 0.00123675 0)
(1.00219 0.00142673 0)
(1.00242 0.00160391 0)
(1.00264 0.00179017 0)
(1.00286 0.00196623 0)
(1.00303 0.00214067 0)
(1.00311 0.00230442 0)
(1.00303 0.00246017 0)
(1.00003 -1.87517e-05 0)
(1.00006 -9.26104e-05 0)
(1.00029 -5.67306e-05 0)
(1.00051 -1.76157e-05 0)
(1.00082 8.00802e-05 0)
(1.00104 0.000162062 0)
(1.00121 0.000321061 0)
(1.00134 0.000473966 0)
(1.00148 0.000627372 0)
(1.00162 0.000776903 0)
(1.0018 0.000914084 0)
(1.00195 0.00107861 0)
(1.00215 0.00124662 0)
(1.00234 0.0014254 0)
(1.00258 0.00159628 0)
(1.00281 0.00176643 0)
(1.00305 0.00192955 0)
(1.00322 0.00208738 0)
(1.00331 0.00223544 0)
(1.00323 0.00237641 0)
(1.00002 -1.12808e-05 0)
(1.00007 -6.44134e-05 0)
(1.00031 -2.58598e-05 0)
(1.00056 1.26094e-05 0)
(1.00086 0.000115773 0)
(1.00109 0.00019642 0)
(1.00129 0.000338694 0)
(1.00143 0.000488352 0)
(1.00157 0.000645952 0)
(1.00171 0.000794098 0)
(1.00191 0.000933099 0)
(1.00208 0.00108619 0)
(1.00229 0.00124502 0)
(1.0025 0.00141408 0)
(1.00275 0.00157387 0)
(1.00298 0.00173291 0)
(1.00322 0.0018807 0)
(1.0034 0.00202598 0)
(1.0035 0.0021585 0)
(1.00342 0.00228625 0)
(1.00003 -2.83808e-06 0)
(1.00007 -3.94277e-05 0)
(1.00033 3.64133e-06 0)
(1.00059 4.28437e-05 0)
(1.0009 0.000147984 0)
(1.00115 0.000229517 0)
(1.00136 0.000359961 0)
(1.00152 0.00049756 0)
(1.00167 0.00065561 0)
(1.00181 0.000804108 0)
(1.00201 0.000942802 0)
(1.0022 0.0010891 0)
(1.00243 0.00123569 0)
(1.00264 0.00139357 0)
(1.0029 0.00154039 0)
(1.00314 0.00168829 0)
(1.00339 0.00182234 0)
(1.00357 0.00195441 0)
(1.00368 0.0020743 0)
(1.00361 0.00218766 0)
(1.00002 4.05677e-06 0)
(1.00008 -1.61662e-05 0)
(1.00035 3.24705e-05 0)
(1.00063 7.19786e-05 0)
(1.00095 0.000173481 0)
(1.00121 0.000254817 0)
(1.00143 0.00038384 0)
(1.0016 0.000507016 0)
(1.00177 0.000659426 0)
(1.00191 0.000807826 0)
(1.00212 0.000941333 0)
(1.00232 0.00108213 0)
(1.00256 0.00121633 0)
(1.00279 0.00136152 0)
(1.00306 0.00149653 0)
(1.00331 0.00163059 0)
(1.00356 0.00175402 0)
(1.00374 0.00187077 0)
(1.00385 0.0019802 0)
(1.00378 0.00207945 0)
(1.00002 1.04084e-05 0)
(1.00009 2.82009e-06 0)
(1.00037 5.86503e-05 0)
(1.00066 9.68939e-05 0)
(1.00099 0.000199913 0)
(1.00126 0.000279474 0)
(1.0015 0.000397248 0)
(1.00168 0.0005138 0)
(1.00186 0.000654651 0)
(1.00202 0.000797046 0)
(1.00223 0.000930348 0)
(1.00244 0.00106135 0)
(1.00269 0.00118789 0)
(1.00294 0.00131862 0)
(1.00321 0.00144319 0)
(1.00346 0.00156457 0)
(1.00371 0.00167758 0)
(1.0039 0.00178196 0)
(1.004 0.00187907 0)
(1.00393 0.00196751 0)
(1.00002 1.71244e-05 0)
(1.00009 1.84904e-05 0)
(1.00038 8.10282e-05 0)
(1.00068 0.000122758 0)
(1.00103 0.000216302 0)
(1.00131 0.000296268 0)
(1.00157 0.000411751 0)
(1.00176 0.000514576 0)
(1.00196 0.000646925 0)
(1.00212 0.000778129 0)
(1.00233 0.000905046 0)
(1.00255 0.00103179 0)
(1.00281 0.0011476 0)
(1.00306 0.00126828 0)
(1.00335 0.00137747 0)
(1.0036 0.00148819 0)
(1.00386 0.00158802 0)
(1.00405 0.00168315 0)
(1.00415 0.00176805 0)
(1.00408 0.00184703 0)
(1.00002 2.22751e-05 0)
(1.0001 3.24362e-05 0)
(1.00039 0.000100077 0)
(1.00071 0.000140872 0)
(1.00106 0.000230848 0)
(1.00137 0.000306725 0)
(1.00162 0.000420607 0)
(1.00183 0.000512769 0)
(1.00205 0.000631324 0)
(1.00221 0.000752899 0)
(1.00244 0.000865832 0)
(1.00266 0.000987149 0)
(1.00293 0.00109395 0)
(1.00319 0.00120381 0)
(1.00347 0.00130259 0)
(1.00374 0.00139916 0)
(1.004 0.00149009 0)
(1.00419 0.00157272 0)
(1.00429 0.00165014 0)
(1.00422 0.00171753 0)
(1.00002 2.62202e-05 0)
(1.0001 4.50032e-05 0)
(1.0004 0.000114241 0)
(1.00072 0.000157182 0)
(1.00109 0.000243795 0)
(1.00141 0.000308237 0)
(1.00168 0.000409645 0)
(1.0019 0.000501942 0)
(1.00213 0.000607359 0)
(1.0023 0.000719992 0)
(1.00254 0.000824469 0)
(1.00277 0.000930597 0)
(1.00304 0.00103105 0)
(1.0033 0.00112487 0)
(1.00359 0.00121743 0)
(1.00386 0.00129925 0)
(1.00412 0.00138149 0)
(1.00431 0.00145287 0)
(1.00441 0.00152219 0)
(1.00434 0.00158124 0)
(1.00002 2.90295e-05 0)
(1.00011 5.47418e-05 0)
(1.00041 0.0001259 0)
(1.00075 0.000166749 0)
(1.00112 0.000243395 0)
(1.00145 0.000306439 0)
(1.00173 0.000399415 0)
(1.00196 0.000479855 0)
(1.0022 0.000575693 0)
(1.00239 0.000673163 0)
(1.00262 0.000772053 0)
(1.00286 0.00086376 0)
(1.00314 0.000954041 0)
(1.00341 0.00103754 0)
(1.0037 0.00111889 0)
(1.00397 0.00119196 0)
(1.00423 0.0012616 0)
(1.00442 0.0013249 0)
(1.00453 0.00138372 0)
(1.00445 0.00143647 0)
(1.00002 3.10138e-05 0)
(1.00011 6.18177e-05 0)
(1.00042 0.000130983 0)
(1.00076 0.000168219 0)
(1.00114 0.000241098 0)
(1.00148 0.000291517 0)
(1.00177 0.000376735 0)
(1.00201 0.000452829 0)
(1.00226 0.000530843 0)
(1.00246 0.00061659 0)
(1.00271 0.000706259 0)
(1.00295 0.000785947 0)
(1.00323 0.000867096 0)
(1.00351 0.000937807 0)
(1.0038 0.00101008 0)
(1.00407 0.00107186 0)
(1.00433 0.0011338 0)
(1.00452 0.00118602 0)
(1.00462 0.0012384 0)
(1.00455 0.00128192 0)
(1.00002 3.08691e-05 0)
(1.00011 6.67707e-05 0)
(1.00042 0.000132072 0)
(1.00077 0.000163034 0)
(1.00115 0.000231705 0)
(1.0015 0.00027619 0)
(1.00181 0.000339887 0)
(1.00206 0.000411828 0)
(1.00232 0.000476382 0)
(1.00253 0.000548078 0)
(1.00278 0.000626365 0)
(1.00303 0.000692727 0)
(1.00331 0.000767089 0)
(1.00359 0.000825108 0)
(1.00388 0.000890643 0)
(1.00415 0.00094239 0)
(1.00441 0.000996677 0)
(1.0046 0.00104059 0)
(1.0047 0.00108524 0)
(1.00462 0.00112252 0)
(1.00002 3.05002e-05 0)
(1.00012 6.42709e-05 0)
(1.00042 0.00013157 0)
(1.00077 0.00015458 0)
(1.00116 0.000210527 0)
(1.00151 0.000249199 0)
(1.00184 0.000299052 0)
(1.0021 0.000354124 0)
(1.00236 0.00041396 0)
(1.00259 0.000470444 0)
(1.00284 0.000541022 0)
(1.00309 0.000593546 0)
(1.00338 0.00065702 0)
(1.00365 0.000706279 0)
(1.00395 0.000759665 0)
(1.00422 0.000803593 0)
(1.00448 0.000845785 0)
(1.00467 0.000883188 0)
(1.00477 0.000917646 0)
(1.00469 0.000949345 0)
(1.00002 2.68095e-05 0)
(1.00012 5.92978e-05 0)
(1.00042 0.000114136 0)
(1.00077 0.000136176 0)
(1.00116 0.000181154 0)
(1.00152 0.000202879 0)
(1.00185 0.000245224 0)
(1.00212 0.000289386 0)
(1.0024 0.000334231 0)
(1.00264 0.000382469 0)
(1.00289 0.000435897 0)
(1.00315 0.000479488 0)
(1.00343 0.000526124 0)
(1.00371 0.00056494 0)
(1.00401 0.00060661 0)
(1.00428 0.000639422 0)
(1.00454 0.00067385 0)
(1.00473 0.000700736 0)
(1.00483 0.000729515 0)
(1.00475 0.000752321 0)
(1.00002 2.27223e-05 0)
(1.00012 5.30733e-05 0)
(1.00042 0.000100962 0)
(1.00077 0.000111747 0)
(1.00116 0.000157273 0)
(1.00152 0.000173661 0)
(1.00187 0.000203289 0)
(1.00214 0.000242556 0)
(1.00242 0.000276836 0)
(1.00267 0.000310544 0)
(1.00293 0.000357522 0)
(1.00319 0.00038978 0)
(1.00347 0.000433302 0)
(1.00376 0.000461043 0)
(1.00405 0.00050032 0)
(1.00432 0.000526039 0)
(1.00458 0.000556913 0)
(1.00476 0.000578446 0)
(1.00487 0.000602208 0)
(1.00478 0.000621341 0)
(1.00002 1.1811e-05 0)
(1.00012 2.31195e-05 0)
(1.00042 5.16614e-05 0)
(1.00076 5.21654e-05 0)
(1.00117 7.53171e-05 0)
(1.00151 8.36243e-05 0)
(1.00188 9.6648e-05 0)
(1.00216 0.000113492 0)
(1.00244 0.000132663 0)
(1.0027 0.000144275 0)
(1.00297 0.000170997 0)
(1.00322 0.000184045 0)
(1.00351 0.000208356 0)
(1.00379 0.000220188 0)
(1.0041 0.000240512 0)
(1.00436 0.000252456 0)
(1.00462 0.000267265 0)
(1.0048 0.000277664 0)
(1.00491 0.000288092 0)
(1.00482 0.000297527 0)
(0.984336 0.00209895 0)
(0.960217 0.00330653 0)
(0.935884 0.00366057 0)
(0.911084 0.00362204 0)
(0.885844 0.00354309 0)
(0.860212 0.00351822 0)
(0.834221 0.00352094 0)
(0.807838 0.00351727 0)
(0.781044 0.00349518 0)
(0.753812 0.00345979 0)
(0.726121 0.00341893 0)
(0.697944 0.00337249 0)
(0.669316 0.00332354 0)
(0.640191 0.00327428 0)
(0.610586 0.00322048 0)
(0.580492 0.00316093 0)
(0.549989 0.00309561 0)
(0.519092 0.0030215 0)
(0.487943 0.00293601 0)
(0.456586 0.00283889 0)
(0.425214 0.00272351 0)
(0.393977 0.00256875 0)
(0.363415 0.00235745 0)
(0.33409 0.00207326 0)
(0.306794 0.00166915 0)
(0.282556 0.00116107 0)
(0.262323 0.000570935 0)
(0.246775 5.81138e-05 0)
(0.235731 -0.000285917 0)
(0.228112 -0.000451906 0)
(0.222728 -0.000506215 0)
(0.218821 -0.000483116 0)
(0.215814 -0.000446951 0)
(0.213308 -0.000398956 0)
(0.211072 -0.000343799 0)
(0.208912 -0.000287427 0)
(0.206692 -0.000234993 0)
(0.204361 -0.000189241 0)
(0.201896 -0.000150535 0)
(0.199295 -0.000116998 0)
(0.196585 -9.03989e-05 0)
(0.193794 -6.89242e-05 0)
(0.190966 -5.16404e-05 0)
(0.188115 -3.85946e-05 0)
(0.185267 -2.76443e-05 0)
(0.182441 -1.9146e-05 0)
(0.179653 -1.14933e-05 0)
(0.176912 -5.32948e-06 0)
(0.174219 9.09812e-08 0)
(0.171577 4.91407e-06 0)
(0.168987 9.06657e-06 0)
(0.166449 1.25846e-05 0)
(0.163971 1.53793e-05 0)
(0.161544 1.76891e-05 0)
(0.159189 1.89622e-05 0)
(0.156889 2.01135e-05 0)
(0.154671 2.06312e-05 0)
(0.152508 2.12454e-05 0)
(0.150419 2.2098e-05 0)
(0.148371 2.21121e-05 0)
(0.146388 2.24653e-05 0)
(0.144435 2.21691e-05 0)
(0.142545 2.17979e-05 0)
(0.140691 2.10451e-05 0)
(0.138908 2.02192e-05 0)
(0.137162 1.94891e-05 0)
(0.135483 1.89269e-05 0)
(0.133824 1.84039e-05 0)
(0.13222 1.77032e-05 0)
(0.130629 1.67748e-05 0)
(0.129098 1.63566e-05 0)
(0.127577 1.52831e-05 0)
(0.12613 1.46868e-05 0)
(0.12469 1.38147e-05 0)
(0.123322 1.32398e-05 0)
(0.121949 1.26005e-05 0)
(0.120653 1.21045e-05 0)
(0.119337 1.16729e-05 0)
(0.118118 1.07054e-05 0)
(0.11687 1.04104e-05 0)
(0.115737 9.91116e-06 0)
(0.114558 8.96573e-06 0)
(0.113513 9.02694e-06 0)
(0.112403 7.95371e-06 0)
(0.111457 7.56697e-06 0)
(0.110411 7.59933e-06 0)
(0.109562 6.56199e-06 0)
(0.108597 5.89041e-06 0)
(0.107855 6.33338e-06 0)
(0.106941 4.9924e-06 0)
(0.106322 4.80536e-06 0)
(0.105457 5.11152e-06 0)
(0.104953 3.94801e-06 0)
(0.10414 3.33991e-06 0)
(0.103771 4.07656e-06 0)
(0.102943 3.56791e-06 0)
(0.102721 2.64924e-06 0)
(0.101874 3.40375e-06 0)
(0.101793 3.94221e-06 0)
(0.100757 5.34635e-06 0)
(0.996854 0.00406016 0)
(0.99593 0.00590351 0)
(0.994662 0.00654332 0)
(0.993013 0.00649186 0)
(0.990898 0.00633494 0)
(0.988237 0.00628705 0)
(0.985029 0.00633017 0)
(0.981208 0.00639963 0)
(0.976769 0.0064603 0)
(0.971631 0.00650948 0)
(0.965791 0.00655682 0)
(0.959151 0.00660437 0)
(0.95174 0.00665185 0)
(0.943442 0.00670242 0)
(0.934282 0.00675091 0)
(0.92414 0.00679267 0)
(0.913085 0.00682412 0)
(0.900992 0.00684345 0)
(0.887952 0.0068454 0)
(0.873845 0.00682529 0)
(0.858775 0.00677863 0)
(0.842677 0.00668211 0)
(0.825794 0.00650971 0)
(0.808304 0.00623342 0)
(0.790572 0.00579221 0)
(0.773047 0.00516932 0)
(0.756306 0.00438154 0)
(0.740821 0.00353799 0)
(0.726822 0.00275531 0)
(0.714122 0.0021345 0)
(0.702363 0.00169598 0)
(0.691299 0.00140102 0)
(0.680729 0.00119752 0)
(0.670527 0.00104743 0)
(0.660597 0.000941817 0)
(0.650891 0.000875048 0)
(0.641314 0.000832312 0)
(0.631848 0.000803734 0)
(0.62247 0.00078256 0)
(0.61312 0.000763785 0)
(0.603868 0.000742897 0)
(0.594658 0.000718031 0)
(0.585573 0.000692874 0)
(0.576584 0.000666993 0)
(0.567719 0.000640651 0)
(0.558981 0.000611327 0)
(0.550389 0.000582822 0)
(0.541961 0.000554644 0)
(0.533701 0.000528137 0)
(0.5256 0.000502967 0)
(0.517685 0.000478361 0)
(0.509928 0.000454444 0)
(0.502375 0.00043224 0)
(0.494974 0.000410457 0)
(0.487793 0.000388557 0)
(0.480765 0.000368331 0)
(0.473976 0.000348033 0)
(0.467321 0.000329636 0)
(0.460912 0.00031369 0)
(0.454621 0.00029773 0)
(0.44855 0.000285357 0)
(0.442573 0.000272131 0)
(0.436804 0.000260006 0)
(0.431128 0.000247338 0)
(0.425663 0.000235495 0)
(0.420284 0.000224159 0)
(0.415106 0.000214183 0)
(0.409988 0.000205904 0)
(0.40507 0.000198256 0)
(0.400159 0.000189783 0)
(0.395461 0.000183224 0)
(0.390765 0.000173989 0)
(0.386294 0.000166884 0)
(0.381817 0.000159321 0)
(0.37758 0.000153133 0)
(0.373292 0.000146155 0)
(0.369273 0.000140706 0)
(0.365163 0.000134627 0)
(0.361381 0.000127778 0)
(0.357443 0.000121887 0)
(0.353922 0.000116208 0)
(0.350176 0.000109001 0)
(0.34691 0.000105404 0)
(0.343377 9.73023e-05 0)
(0.340379 9.27381e-05 0)
(0.337036 8.80029e-05 0)
(0.33437 8.12993e-05 0)
(0.331206 7.5021e-05 0)
(0.328874 7.3555e-05 0)
(0.325906 6.48559e-05 0)
(0.323899 6.17417e-05 0)
(0.32106 5.80511e-05 0)
(0.319498 5.27833e-05 0)
(0.316756 4.66499e-05 0)
(0.315573 4.72957e-05 0)
(0.312868 4.12397e-05 0)
(0.312179 3.84904e-05 0)
(0.309377 3.56694e-05 0)
(0.309174 3.74075e-05 0)
(0.306145 4.06517e-05 0)
(0.997294 0.00359077 0)
(0.996761 0.00477509 0)
(0.996422 0.00544933 0)
(0.996287 0.00558092 0)
(0.996295 0.00551575 0)
(0.996313 0.00549058 0)
(0.996338 0.00556888 0)
(0.996291 0.00571292 0)
(0.996197 0.00587667 0)
(0.995968 0.00603636 0)
(0.995629 0.00619703 0)
(0.995078 0.006358 0)
(0.994361 0.00652235 0)
(0.99336 0.00669315 0)
(0.992127 0.00686618 0)
(0.990534 0.00703451 0)
(0.988658 0.00719549 0)
(0.98637 0.00734723 0)
(0.983746 0.00748293 0)
(0.980643 0.00759646 0)
(0.977131 0.00768162 0)
(0.973085 0.00770969 0)
(0.968602 0.00764475 0)
(0.963623 0.00745089 0)
(0.958276 0.00707521 0)
(0.95259 0.00647991 0)
(0.946779 0.00569227 0)
(0.940944 0.00479694 0)
(0.935239 0.00392701 0)
(0.929653 0.00321754 0)
(0.924152 0.00272992 0)
(0.918671 0.00241822 0)
(0.913197 0.0022282 0)
(0.907692 0.00210304 0)
(0.902153 0.00202385 0)
(0.896544 0.00198006 0)
(0.890855 0.00195809 0)
(0.885027 0.00194334 0)
(0.87911 0.0019344 0)
(0.872998 0.00192398 0)
(0.866806 0.00190455 0)
(0.860413 0.00187693 0)
(0.853943 0.00184284 0)
(0.847306 0.00180436 0)
(0.840595 0.00176367 0)
(0.833737 0.00171631 0)
(0.826819 0.00166779 0)
(0.81977 0.00161577 0)
(0.812695 0.0015652 0)
(0.805488 0.00151359 0)
(0.798287 0.00146208 0)
(0.790978 0.00140995 0)
(0.783693 0.00135897 0)
(0.776309 0.00130812 0)
(0.76899 0.00125602 0)
(0.76155 0.00120491 0)
(0.754244 0.00115387 0)
(0.746796 0.001104 0)
(0.739525 0.00105847 0)
(0.732129 0.00101235 0)
(0.724901 0.000972633 0)
(0.717557 0.000932311 0)
(0.710381 0.000893935 0)
(0.703116 0.000855135 0)
(0.696039 0.000817242 0)
(0.688884 0.000781134 0)
(0.68196 0.000748138 0)
(0.674896 0.000716575 0)
(0.66814 0.000689278 0)
(0.661182 0.000660408 0)
(0.654561 0.000635701 0)
(0.647752 0.000606991 0)
(0.641311 0.000582348 0)
(0.634654 0.000555799 0)
(0.628432 0.00053411 0)
(0.621932 0.000510539 0)
(0.61593 0.000490493 0)
(0.60958 0.000468418 0)
(0.603865 0.000447793 0)
(0.59765 0.000425917 0)
(0.592265 0.000407431 0)
(0.586237 0.000384119 0)
(0.581147 0.000368095 0)
(0.575389 0.000345061 0)
(0.570636 0.000328598 0)
(0.565044 0.000308233 0)
(0.560815 0.000290945 0)
(0.55538 0.000268713 0)
(0.551591 0.000257589 0)
(0.546453 0.000234406 0)
(0.543148 0.000223724 0)
(0.538078 0.000203426 0)
(0.5355 0.00019086 0)
(0.53055 0.000171606 0)
(0.528528 0.000168144 0)
(0.523625 0.000145974 0)
(0.522397 0.000141001 0)
(0.517359 0.000126544 0)
(0.516871 0.000125915 0)
(0.511641 0.000125204 0)
(0.997821 0.00348347 0)
(0.997239 0.00445643 0)
(0.996823 0.00520808 0)
(0.99664 0.00559186 0)
(0.996702 0.00569391 0)
(0.99686 0.0057138 0)
(0.997114 0.00577165 0)
(0.997366 0.00589219 0)
(0.997675 0.00604818 0)
(0.997957 0.00621333 0)
(0.998277 0.00637987 0)
(0.99854 0.00654845 0)
(0.998828 0.00671916 0)
(0.999033 0.00689981 0)
(0.999244 0.00708076 0)
(0.99935 0.00726257 0)
(0.999469 0.00743825 0)
(0.999482 0.0076112 0)
(0.999514 0.00776582 0)
(0.999421 0.00790217 0)
(0.999321 0.00800299 0)
(0.999072 0.0080471 0)
(0.998789 0.00798481 0)
(0.998317 0.00778628 0)
(0.997757 0.00741018 0)
(0.996957 0.00683429 0)
(0.996019 0.00607668 0)
(0.994821 0.0052186 0)
(0.993478 0.00437806 0)
(0.991914 0.00367787 0)
(0.990249 0.003182 0)
(0.988432 0.00286839 0)
(0.9866 0.00268102 0)
(0.984675 0.00256898 0)
(0.982784 0.0025021 0)
(0.98079 0.00246175 0)
(0.978831 0.00243846 0)
(0.97671 0.00242071 0)
(0.974622 0.00241178 0)
(0.972321 0.00240286 0)
(0.970058 0.00238669 0)
(0.967543 0.00236265 0)
(0.96505 0.00233339 0)
(0.962305 0.00230086 0)
(0.959577 0.00226778 0)
(0.956597 0.00222689 0)
(0.953627 0.00218656 0)
(0.950402 0.00214161 0)
(0.947195 0.00209904 0)
(0.943715 0.00205544 0)
(0.94027 0.00201009 0)
(0.936536 0.00196338 0)
(0.932866 0.00191829 0)
(0.928878 0.00187045 0)
(0.925014 0.0018233 0)
(0.920774 0.00177456 0)
(0.916725 0.00172618 0)
(0.912258 0.00167725 0)
(0.908005 0.00163156 0)
(0.903347 0.00158453 0)
(0.898882 0.00154367 0)
(0.894024 0.00150165 0)
(0.889365 0.00146036 0)
(0.884306 0.00141714 0)
(0.879508 0.00137537 0)
(0.874248 0.00133105 0)
(0.86935 0.00129345 0)
(0.863884 0.0012533 0)
(0.85888 0.00121915 0)
(0.853252 0.00118162 0)
(0.848124 0.00114893 0)
(0.842378 0.00110931 0)
(0.83718 0.0010761 0)
(0.831307 0.00103754 0)
(0.826091 0.00100603 0)
(0.820086 0.000969565 0)
(0.814893 0.000940629 0)
(0.808752 0.000903592 0)
(0.803651 0.000873392 0)
(0.7974 0.000836505 0)
(0.792406 0.000806272 0)
(0.786128 0.0007689 0)
(0.781244 0.000740401 0)
(0.774972 0.000699801 0)
(0.770324 0.000675217 0)
(0.763959 0.000634403 0)
(0.759692 0.000605629 0)
(0.753326 0.000567288 0)
(0.749365 0.000543796 0)
(0.743088 0.00049941 0)
(0.739605 0.000483851 0)
(0.7332 0.000441195 0)
(0.730381 0.0004176 0)
(0.723989 0.000380591 0)
(0.721723 0.000372265 0)
(0.715243 0.000326769 0)
(0.713806 0.000317032 0)
(0.707111 0.000285903 0)
(0.706464 0.000280005 0)
(0.699528 0.000264753 0)
(0.998198 0.00353928 0)
(0.997593 0.00437382 0)
(0.997127 0.00509821 0)
(0.996854 0.00558126 0)
(0.996873 0.00578132 0)
(0.997009 0.00582996 0)
(0.997292 0.005853 0)
(0.997559 0.00591864 0)
(0.997912 0.00603599 0)
(0.998217 0.00618225 0)
(0.9986 0.00634183 0)